# vtk DataFile Version 3.0
vtk output
ASCII
DATASET RECTILINEAR_GRID
FIELD FieldData 2
base_index 1 3 int
0 0 0 
avtOriginalBounds 1 6 double
-10 10 -10 10 0 0 
DIMENSIONS 50 50 1
X_COORDINATES 50 float
-10 -9.59184 -9.18367 -8.77551 -8.36735 -7.95918 -7.55102 -7.14286 -6.73469 
-6.32653 -5.91837 -5.5102 -5.10204 -4.69388 -4.28571 -3.87755 -3.46939 -3.06122 
-2.65306 -2.2449 -1.83673 -1.42857 -1.02041 -0.612245 -0.204082 0.204082 0.612245 
1.02041 1.42857 1.83673 2.2449 2.65306 3.06122 3.46939 3.87755 4.28571 
4.69388 5.10204 5.5102 5.91837 6.32653 6.73469 7.14286 7.55102 7.95918 
8.36735 8.77551 9.18367 9.59184 10 
Y_COORDINATES 50 float
-10 -9.59184 -9.18367 -8.77551 -8.36735 -7.95918 -7.55102 -7.14286 -6.73469 
-6.32653 -5.91837 -5.5102 -5.10204 -4.69388 -4.28571 -3.87755 -3.46939 -3.06122 
-2.65306 -2.2449 -1.83673 -1.42857 -1.02041 -0.612245 -0.204082 0.204082 0.612245 
1.02041 1.42857 1.83673 2.2449 2.65306 3.06122 3.46939 3.87755 4.28571 
4.69388 5.10204 5.5102 5.91837 6.32653 6.73469 7.14286 7.55102 7.95918 
8.36735 8.77551 9.18367 9.59184 10 
Z_COORDINATES 1 float
0 
POINT_DATA 2500
SCALARS hgslice float
LOOKUP_TABLE default
2.22019 2.24159 2.26063 2.27669 2.28901 2.29677 2.29907 2.29519 2.28484 
2.26871 2.24924 2.23127 2.22204 2.22946 2.25856 2.30801 2.36988 2.43276 
2.48591 2.52165 2.536 2.52791 2.49824 2.44872 2.38158 2.29984 2.20848 
2.11617 2.03622 1.98387 1.9686 1.98711 2.02516 2.06585 2.09561 2.10498 
2.08678 2.0339 1.93777 1.78853 1.58222 1.34978 1.20445 1.26428 1.46292 
1.6671 1.82475 1.93498 2.00854 2.05547 2.25906 2.28139 2.3011 2.3174 
2.32929 2.33557 2.33482 2.32558 2.30669 2.27804 2.24182 2.2042 2.1763 
2.17222 2.20242 2.26606 2.35028 2.4372 2.51143 2.5633 2.58859 2.5869 
2.55987 2.5099 2.43959 2.35211 2.2526 2.15055 2.0616 2.00478 1.9925 
2.0208 2.07187 2.12554 2.16673 2.18579 2.17593 2.1308 2.04308 1.9053 
1.71727 1.51106 1.38358 1.42812 1.59376 1.77137 1.91199 2.01122 2.07708 
2.11817 2.29928 2.32281 2.34354 2.36052 2.37254 2.37799 2.37483 2.3607 
2.33318 2.29069 2.23425 2.17064 2.11564 2.09302 2.12295 2.20565 2.31965 
2.43698 2.53661 2.60739 2.64571 2.65236 2.63018 2.58256 2.51283 2.42466 
2.32354 2.21942 2.12878 2.07197 2.06246 2.09616 2.15425 2.21568 2.26508 
2.29302 2.29333 2.26094 2.19118 2.08152 1.93824 1.79101 1.70104 1.71755 
1.81621 1.93532 2.03725 2.11218 2.16228 2.1925 2.34082 2.36586 2.38801 
2.40626 2.41919 2.42487 2.42069 2.40333 2.36894 2.31394 2.23725 2.1449 
2.05693 2.00959 2.03787 2.1438 2.29277 2.4436 2.56973 2.65974 2.71145 
2.72722 2.71128 2.66825 2.60254 2.51878 2.42314 2.32567 2.24195 2.19044 
2.18314 2.21656 2.27414 2.33688 2.39042 2.42569 2.43681 2.41954 2.37123 
2.2927 2.19275 2.09364 2.02885 2.02167 2.06344 2.12549 2.18446 2.22994 
2.25999 2.27616 2.38358 2.41042 2.43443 2.45457 2.46935 2.47664 2.47346 
2.45576 2.41847 2.35619 2.26553 2.15089 2.03476 1.96454 1.99071 2.11746 
2.29671 2.47532 2.62299 2.72877 2.79178 2.8156 2.80564 2.7678 2.70786 
2.63167 2.54621 2.46119 2.38999 2.34717 2.34179 2.37137 2.42356 2.4833 
2.53828 2.57988 2.60205 2.60034 2.57231 2.51934 2.44913 2.3769 2.32161 
2.2959 2.29826 2.3167 2.33852 2.35577 2.36514 2.36612 2.4274 2.45626 
2.48248 2.50508 2.52262 2.53298 2.5331 2.51868 2.48411 2.42311 2.33119 
2.21189 2.08826 2.01123 2.03667 2.17023 2.36033 2.55046 2.70883 2.82374 
2.8938 2.92257 2.91612 2.88163 2.82643 2.75772 2.68313 2.61164 2.55386 
2.52023 2.5169 2.54242 2.58861 2.64474 2.70103 2.74955 2.78369 2.79766 
2.78735 2.75239 2.69829 2.63617 2.5792 2.5368 2.51099 2.49751 2.48994 
2.48291 2.47321 2.45941 2.47203 2.50305 2.5317 2.55713 2.57806 2.59263 
2.59802 2.59021 2.5639 2.51319 2.43422 2.33114 2.22596 2.16359 2.1911 
2.31453 2.49278 2.67683 2.83514 2.95279 3.02514 3.05409 3.04611 3.01006 
2.95532 2.89059 2.82392 2.7632 2.71642 2.69059 2.68966 2.71289 2.75535 
2.81001 2.86965 2.92728 2.97555 3.00636 3.01205 2.98886 2.94017 2.87623 
2.80966 2.75021 2.70204 2.66439 2.63393 2.60701 2.58079 2.55352 2.51724 
2.55041 2.58149 2.6098 2.63433 2.65357 2.66521 2.66593 2.65131 2.61667 
2.55958 2.48505 2.41221 2.37531 2.40786 2.51635 2.67524 2.84787 3.00383 
3.12282 3.19426 3.21734 3.19967 3.15354 3.09161 3.02451 2.96043 2.90593 
2.86651 2.84649 2.84817 2.87123 2.91293 2.96908 3.0348 3.10431 3.16963 
3.21959 3.24116 3.22536 3.17391 3.09929 3.01734 2.94 2.87284 2.81632 
2.76819 2.72546 2.68554 2.64657 2.56281 2.59799 2.63129 2.66219 2.68995 
2.71345 2.73098 2.74003 2.73726 2.71931 2.68497 2.63927 2.59759 2.58491 
2.62525 2.72685 2.87706 3.04977 3.21439 3.34199 3.41245 3.4216 3.38145 
3.31199 3.23184 3.15405 3.0864 3.03339 2.99792 2.98191 2.98628 3.01073 
3.0539 3.11364 3.18715 3.27002 3.35411 3.42501 3.46283 3.45146 3.39141 
3.30036 3.20015 3.10568 3.02305 2.95243 2.89132 2.83668 2.78592 2.7372 
2.60862 2.64555 2.68067 2.71357 2.74372 2.7703 2.79211 2.80732 2.81354 
2.80844 2.79155 2.76735 2.74818 2.7535 2.80365 2.91064 3.07206 3.26936 
3.46812 3.62323 3.69626 3.67858 3.595 3.48263 3.37021 3.27286 3.19615 
3.14112 3.10736 3.09427 3.10133 3.12798 3.17354 3.23722 3.31778 3.41214 
3.51245 3.60178 3.6536 3.64434 3.57373 3.46615 3.35012 3.24306 3.15056 
3.07147 3.00233 2.9397 2.88098 2.8245 2.65467 2.69306 2.72951 2.76365 
2.79506 2.82311 2.84686 2.86497 2.87567 2.87735 2.86998 2.85754 2.85052 
2.86618 2.92544 3.04694 3.23949 3.49276 3.76576 3.98291 4.06576 3.99755 
3.83633 3.6547 3.49532 3.37181 3.28346 3.22542 3.19295 3.18273 3.19269 
3.22174 3.26942 3.33557 3.41973 3.51956 3.62741 3.72518 3.78299 3.77341 
3.69617 3.57999 3.45747 3.34708 3.25308 3.17251 3.10074 3.03407 2.97019 
2.90788 2.70114 2.74071 2.77801 2.81266 2.84422 2.8721 2.89548 2.91321 
2.92392 2.92642 2.92093 2.91107 2.90622 2.92307 2.98554 3.12173 3.35581 
3.6921 4.0873 4.41811 4.52107 4.3618 4.07631 3.8002 3.5867 3.43804 
3.34121 3.28298 3.25378 3.2476 3.26106 3.29251 3.34136 3.40746 3.49032 
3.58738 3.69069 3.78248 3.83464 3.82225 3.74592 3.63367 3.5178 3.41604 
3.33053 3.25604 3.18701 3.11998 3.05344 2.98697 2.74834 2.78889 2.8267 
2.86128 2.89213 2.9186 2.93985 2.95482 2.96229 2.9613 2.95209 2.93774 
2.92643 2.93425 2.98811 3.12627 3.39076 3.80691 4.34195 4.8239 4.95331 
4.66471 4.2313 3.86601 3.61479 3.45665 3.36275 3.31169 3.2901 3.29034 
3.30837 3.34227 3.39127 3.45495 3.53223 3.61978 3.70932 3.78481 3.82348 
3.80682 3.73666 3.63734 3.53845 3.4556 3.38721 3.32503 3.26287 3.1982 
3.13084 3.06153 2.79671 2.8382 2.87633 2.91053 2.94018 2.96454 2.98275 
2.99376 2.99642 2.98982 2.974 2.95115 2.92774 2.91806 2.9495 3.06629 
3.32199 3.75466 4.34113 4.89147 5.02409 4.65853 4.16462 3.7873 3.55165 
3.41697 3.34523 3.31213 3.30402 3.31368 3.3376 3.37419 3.42275 3.48258 
3.55208 3.62733 3.70034 3.75775 3.78277 3.76298 3.70096 3.61751 3.53965 
3.48015 3.43241 3.3848 3.33097 3.26977 3.20251 3.13118 2.84676 2.88929 
2.92778 2.96155 2.98987 3.01199 3.02701 3.03392 3.03164 3.01925 2.99647 
2.9645 2.92782 2.89778 2.8985 2.97144 3.16609 3.51001 3.96756 4.37331 
4.44843 4.16028 3.79581 3.53718 3.39239 3.32175 3.2934 3.2892 3.30005 
3.32178 3.3527 3.39226 3.4402 3.49588 3.55753 3.62127 3.68013 3.72375 
3.74031 3.72172 3.67078 3.60486 3.54748 3.5082 3.4771 3.44094 3.39369 
3.33532 3.26824 3.19529 2.89902 2.94288 2.98194 3.01543 3.04261 3.0627 
3.07488 3.07824 3.07181 3.0547 3.0264 2.98733 2.94029 2.89336 2.86453 
2.88402 2.98283 3.16404 3.37738 3.51677 3.48699 3.34076 3.21886 3.17065 
3.17119 3.19267 3.22131 3.25236 3.28501 3.31993 3.35818 3.40072 3.44807 
3.49999 3.55497 3.60972 3.65875 3.69451 3.70901 3.69722 3.66178 3.61577 
3.5764 3.54976 3.52672 3.4957 3.45149 3.3944 3.32714 3.25285 2.95407 
2.99965 3.03963 3.07315 3.09949 3.11795 3.12785 3.12847 3.11902 3.09874 
3.06706 3.02402 2.97121 2.91371 2.86241 2.83313 2.83538 2.85218 2.83322 
2.73163 2.58956 2.54562 2.64734 2.80761 2.95325 3.06549 3.14934 3.21394 
3.26696 3.3139 3.35861 3.40359 3.45025 3.49892 3.54864 3.59702 3.64008 
3.67266 3.68961 3.68796 3.66978 3.6433 3.61854 3.59852 3.57712 3.54637 
3.50235 3.44532 3.3777 3.30245 3.01247 3.06032 3.10163 3.13553 3.16133 
3.17852 3.18665 3.18526 3.17381 3.15178 3.11871 3.07446 3.01985 2.95743 
2.8919 2.8275 2.75953 2.66389 2.50206 2.26719 2.06464 2.07098 2.29202 
2.57078 2.80462 2.97571 3.09732 3.18573 3.25344 3.309 3.35807 3.40428 
3.44979 3.49545 3.54094 3.58475 3.62425 3.65608 3.67699 3.68521 3.68179 
3.67084 3.65694 3.64099 3.6194 3.58751 3.54286 3.48573 3.41813 3.34264 
3.07484 3.12563 3.16875 3.20327 3.22868 3.24476 3.25139 3.24844 3.2357 
3.21288 3.17972 3.13611 3.0823 3.01907 2.94713 2.86459 2.76223 2.62052 
2.41973 2.17755 1.99805 2.0189 2.23539 2.51392 2.75788 2.94296 3.07737 
3.17555 3.24982 3.30914 3.35963 3.40537 3.44884 3.49133 3.533 3.57308 
3.60994 3.64147 3.66559 3.68098 3.68774 3.68722 3.68075 3.66802 3.64682 
3.61459 3.57005 3.51359 3.44688 3.37212 3.14194 3.1965 3.24187 3.27708 
3.30193 3.31667 3.3217 3.31729 3.30353 3.28037 3.24775 3.20565 3.15413 
3.09308 3.02153 2.93606 2.82912 2.69027 2.51611 2.33268 2.21212 2.2312 
2.38608 2.59887 2.80103 2.96539 3.09095 3.18565 3.25836 3.31638 3.36514 
3.40844 3.44877 3.48754 3.52526 3.56163 3.59573 3.62623 3.65169 3.67096 
3.68343 3.6889 3.68707 3.67698 3.65704 3.62577 3.58256 3.52789 3.46313 
3.39017 3.21471 3.27418 3.32218 3.35775 3.38132 3.39398 3.39687 3.39071 
3.37583 3.35234 3.3203 3.2799 3.23133 3.17446 3.10826 3.03009 2.93577 
2.82204 2.69344 2.57225 2.49988 2.51307 2.60986 2.7519 2.89851 3.02708 
3.13141 3.21361 3.27851 3.33101 3.37522 3.41424 3.45023 3.48455 3.51781 
3.55002 3.58068 3.60892 3.63367 3.65387 3.66852 3.6767 3.67736 3.66924 
3.651 3.62162 3.58074 3.52881 3.46695 3.39673 3.29438 3.3604 3.41132 
3.44625 3.4669 3.47598 3.47571 3.46725 3.45096 3.42685 3.39503 3.35596 
3.31031 3.25855 3.20042 3.13459 3.05936 2.97481 2.88676 2.81021 2.76702 
2.77423 2.83106 2.91955 3.01762 3.10978 3.18907 3.25449 3.30788 3.35199 
3.38953 3.42276 3.45335 3.48243 3.5106 3.53799 3.56433 3.58904 3.61129 
3.63013 3.64445 3.65306 3.65463 3.64779 3.63127 3.60419 3.5662 3.5176 
3.45925 3.39248 3.38215 3.45732 3.51128 3.54335 3.55807 3.56116 3.55636 
3.54504 3.52712 3.5021 3.46991 3.43133 3.38789 3.34118 3.29203 3.24013 
3.18464 3.12604 3.06834 3.02023 2.99296 2.99477 3.02566 3.07741 3.13859 
3.19968 3.25515 3.30298 3.34338 3.37758 3.40714 3.43352 3.45787 3.48104 
3.50348 3.52536 3.54652 3.56658 3.58493 3.60076 3.61306 3.62062 3.62204 
3.61591 3.60094 3.5762 3.54125 3.4962 3.44167 3.37872 3.4778 3.56625 
3.62312 3.64821 3.65227 3.6463 3.6358 3.62161 3.60239 3.57651 3.54337 
3.50414 3.46161 3.41915 3.37896 3.34116 3.30436 3.26747 3.23175 3.20141 
3.1823 3.17896 3.19213 3.21847 3.25242 3.28863 3.32334 3.35463 3.38201 
3.40583 3.42681 3.44575 3.46333 3.48007 3.49627 3.51202 3.52725 3.54173 
3.55509 3.56677 3.57598 3.58162 3.5823 3.57654 3.56295 3.54047 3.5085 
3.46695 3.41625 3.35727 3.57523 3.68236 3.74169 3.75412 3.74239 3.72531 
3.70936 3.69363 3.67458 3.64877 3.61457 3.57353 3.53038 3.49111 3.45983 
3.43653 3.4178 3.39965 3.38026 3.36094 3.34507 3.33606 3.33558 3.34306 
3.35628 3.37259 3.3897 3.40617 3.42129 3.43493 3.44726 3.45856 3.46913 
3.47914 3.48872 3.49786 3.50653 3.51465 3.52215 3.52886 3.53434 3.53768 
3.5375 3.53213 3.51994 3.49967 3.47054 3.43232 3.3853 3.33017 3.65478 
3.78222 3.84356 3.8413 3.81417 3.78865 3.77066 3.75676 3.74095 3.71751 
3.68329 3.6401 3.59531 3.55883 3.53737 3.53014 3.53006 3.52888 3.52165 
3.50812 3.49124 3.47487 3.46193 3.45372 3.45004 3.44987 3.45199 3.45537 
3.45928 3.46333 3.4673 3.4711 3.47465 3.47786 3.48062 3.48281 3.48439 
3.48545 3.48631 3.48735 3.48872 3.48984 3.48918 3.48464 3.47418 3.45621 
3.42984 3.39473 3.3511 3.29959 3.6848 3.82071 3.88437 3.87905 3.84986 
3.82583 3.81251 3.80542 3.79715 3.78 3.74894 3.70564 3.66053 3.62874 
3.62018 3.63225 3.65218 3.66606 3.66625 3.65255 3.6294 3.60241 3.57609 
3.55309 3.5344 3.5199 3.50895 3.50074 3.49454 3.48976 3.48591 3.48257 
3.47935 3.47589 3.47183 3.46691 3.46101 3.45438 3.44776 3.4424 3.43945 
3.43883 3.43863 3.43587 3.42775 3.41235 3.38867 3.35642 3.31583 3.26755 
3.65214 3.77748 3.844 3.85402 3.84137 3.8307 3.82863 3.83239 3.8353 
3.82909 3.80716 3.77048 3.73208 3.71217 3.7235 3.75996 3.8008 3.82569 
3.82559 3.803 3.76615 3.72352 3.6813 3.64297 3.60996 3.58241 3.55976 
3.54124 3.52599 3.51324 3.50224 3.49231 3.48277 3.47298 3.46236 3.45043 
3.43695 3.42216 3.40727 3.39471 3.3873 3.38582 3.38753 3.38784 3.38283 
3.37024 3.34913 3.3194 3.28142 3.23588 3.57984 3.68763 3.7562 3.78652 
3.79699 3.80411 3.81466 3.8285 3.84184 3.84881 3.84383 3.82736 3.81239 
3.82077 3.86511 3.93325 3.99456 4.02239 4.00945 3.96528 3.90478 3.84013 
3.7787 3.72391 3.67679 3.63703 3.60381 3.57608 3.5528 3.53297 3.51562 
3.49981 3.48459 3.46907 3.45244 3.43401 3.41333 3.39056 3.36718 3.34695 
3.33513 3.33388 3.33899 3.34339 3.34186 3.332 3.31314 3.28545 3.24952 
3.20613 3.49653 3.58997 3.65883 3.70307 3.73095 3.75127 3.76871 3.78437 
3.79854 3.81307 3.83098 3.85499 3.89193 3.95587 4.05327 4.16345 4.24417 
4.26294 4.21984 4.13829 4.04322 3.95042 3.86704 3.79511 3.73426 3.68323 
3.64051 3.60466 3.57436 3.5484 3.52557 3.50471 3.48464 3.46424 3.44248 
3.41856 3.39192 3.3626 3.3322 3.3055 3.29012 3.28969 3.29829 3.30633 
3.30759 3.29971 3.28236 3.25602 3.22144 3.17952 3.41568 3.49904 3.56652 
3.61727 3.65387 3.67915 3.69378 3.69704 3.69244 3.69639 3.73631 3.82498 
3.95009 4.10115 4.27264 4.43585 4.53532 4.53226 4.44156 4.30908 4.17212 
4.0484 3.9428 3.85458 3.7813 3.72033 3.66939 3.62657 3.5903 3.55917 
3.53183 3.50689 3.48296 3.45872 3.43304 3.40511 3.37454 3.34157 3.30796 
3.27876 3.26208 3.26181 3.27136 3.28037 3.28234 3.27498 3.25808 3.23221 
3.1982 3.15699 3.34002 3.416 3.48101 3.53348 3.57267 3.59683 3.60156 
3.58103 3.53774 3.50632 3.56065 3.73663 3.97939 4.2333 4.48179 4.69585 
4.80954 4.77761 4.63418 4.45079 4.27538 4.12508 4.00121 3.89993 3.81674 
3.74781 3.6902 3.64167 3.60052 3.56524 3.53438 3.50643 3.47978 3.45295 
3.42476 3.39456 3.3624 3.32911 3.29682 3.26996 3.2547 3.25338 3.26039 
3.26695 3.26719 3.2587 3.24108 3.21475 3.18047 3.13916 3.26842 3.33856 
3.40073 3.45293 3.49261 3.51516 3.51234 3.47329 3.39687 3.33103 3.4008 
3.66866 4.01876 4.34561 4.63245 4.86246 4.97247 4.91755 4.74275 4.53174 
4.33622 4.17203 4.03827 3.92944 3.84002 3.76565 3.70314 3.65025 3.60531 
3.56689 3.53356 3.50371 3.47558 3.44752 3.41832 3.38757 3.35585 3.32467 
3.29643 3.2744 3.26187 3.25925 3.26226 3.26464 3.26164 3.25087 3.23161 
3.204 3.16866 3.12645 3.19892 3.26409 3.3236 3.37555 3.417 3.44286 
3.44493 3.41374 3.35181 3.31385 3.43145 3.75583 4.13687 4.4531 4.70306 
4.89016 4.96941 4.90627 4.73829 4.53648 4.34721 4.18603 4.05293 3.94314 
3.85169 3.77459 3.70904 3.65311 3.60543 3.56484 3.53004 3.49941 3.47105 
3.44315 3.41444 3.38467 3.35484 3.32691 3.30325 3.28594 3.27604 3.27259 
3.27226 3.27072 3.26434 3.25093 3.22954 3.20006 3.16295 3.11904 3.1295 
3.19003 3.24718 3.29973 3.34559 3.38133 3.40262 3.40782 3.41083 3.46639 
3.66457 4.00583 4.33512 4.55522 4.70415 4.80879 4.8427 4.78145 4.64494 
4.47819 4.3155 4.17139 4.04815 3.94332 3.85361 3.77627 3.70935 3.65159 
3.60215 3.56027 3.52491 3.49449 3.46702 3.44052 3.41362 3.38612 3.35916 
3.33479 3.31513 3.30141 3.29347 3.28968 3.28724 3.28293 3.27391 3.25815 
3.23455 3.20282 3.16332 3.11692 3.05806 3.11365 3.16833 3.22202 3.27415 
3.32381 3.37115 3.42184 3.49627 3.63894 3.89682 4.2311 4.48573 4.59565 
4.64282 4.67217 4.66871 4.61347 4.51183 4.3863 4.25785 4.13788 4.03 
3.93402 3.84873 3.77295 3.70596 3.64738 3.59704 3.55465 3.51947 3.49002 
3.46424 3.44001 3.41585 3.39148 3.36793 3.34706 3.33064 3.31942 3.31277 
3.30896 3.30553 3.29979 3.28922 3.27181 3.24625 3.21206 3.1696 3.11988 
2.98245 3.03192 3.08312 3.13742 3.1959 3.25959 3.33109 3.41805 3.538 
3.71842 3.97535 4.25964 4.45175 4.51293 4.5176 4.51179 4.49235 4.4473 
4.37574 4.28681 4.19128 4.09639 4.00554 3.91997 3.8403 3.76705 3.70082 
3.6422 3.59168 3.54942 3.51494 3.48686 3.4631 3.44145 3.42036 3.39939 
3.37932 3.36166 3.34784 3.33839 3.33272 3.32928 3.32589 3.32006 3.30924 
3.29112 3.26404 3.2273 3.1813 3.1274 2.90054 2.94157 2.98704 3.04014 
3.1035 3.17903 3.26903 3.37858 3.51725 3.69609 3.91278 4.12819 4.27682 
4.3381 4.35015 4.34531 4.32963 4.29943 4.25348 4.19477 4.12765 4.05556 
3.98078 3.90524 3.83106 3.76043 3.69528 3.63713 3.58701 3.54537 3.51186 
3.48518 3.46328 3.44395 3.42562 3.4077 3.39071 3.37578 3.36406 3.35607 
3.35145 3.34897 3.34671 3.34218 3.33252 3.31484 3.28685 3.24753 3.19741 
3.13839 2.81053 2.83942 2.87539 2.9242 2.9903 3.07556 3.1799 3.30336 
3.44737 3.61221 3.78938 3.95451 4.07697 4.14622 4.17714 4.18758 4.18568 
4.17302 4.14974 4.11628 4.0731 4.02053 3.95951 3.89233 3.82249 3.75383 
3.68963 3.63217 3.58283 3.54211 3.50963 3.4841 3.46353 3.44586 3.42954 
3.41393 3.39929 3.38648 3.37647 3.36985 3.36655 3.36573 3.36569 3.36385 
3.35681 3.34081 3.31263 3.27076 3.21596 3.15097 2.71169 2.72316 2.74403 
2.78419 2.851 2.9458 3.06426 3.20008 3.34789 3.50251 3.65549 3.79322 
3.90176 3.97597 4.02153 4.04782 4.06175 4.06682 4.06401 4.05237 4.02955 
3.99322 3.94303 3.88171 3.81436 3.74656 3.6828 3.626 3.57758 3.53789 
3.50634 3.48158 3.46174 3.44494 3.42977 3.41558 3.40249 3.39118 3.38251 
3.37719 3.37546 3.37681 3.37979 3.3817 3.37849 3.36526 3.33759 3.2933 
3.23349 3.16201 2.60568 2.59319 2.59141 2.6171 2.68313 2.79005 2.92661 
3.07833 3.23405 3.38627 3.52852 3.65379 3.75609 3.83345 3.88885 3.92794 
3.95632 3.97786 3.99369 4.00153 3.99639 3.97323 3.93053 3.87202 3.80486 
3.73654 3.67261 3.61626 3.56876 3.53005 3.49927 3.47494 3.45532 3.43874 
3.42398 3.41044 3.39819 3.3878 3.38009 3.37588 3.37566 3.37924 3.3854 
3.39132 3.39235 3.38242 3.35572 3.30932 3.24474 3.16709 2.49843 2.45593 
2.42325 2.42771 2.4921 2.61593 2.77676 2.94933 3.11737 3.27307 3.4126 
3.53334 3.63361 3.7136 3.77591 3.82494 3.86563 3.90192 3.9348 3.96062 
3.97134 3.95853 3.91963 3.86035 3.79092 3.7208 3.65622 3.60022 3.55359 
3.51582 3.48567 3.46157 3.44186 3.4251 3.41026 3.39683 3.38487 3.37491 
3.36773 3.36424 3.36507 3.37028 3.3788 3.3878 3.3922 3.38498 3.35922 
3.31134 3.24321 3.16103 2.40156 2.32794 2.26035 2.23911 2.30137 2.44533 
2.63322 2.82746 3.00821 3.1689 3.30859 3.42783 3.52763 3.60972 3.67698 
3.73357 3.78428 3.83318 3.88132 3.92388 3.94929 3.94447 3.90562 3.84213 
3.76847 3.69595 3.63079 3.57536 3.52976 3.49297 3.46344 3.43952 3.41964 
3.40254 3.38738 3.37375 3.36173 3.35179 3.3447 3.34134 3.34239 3.34799 
3.35717 3.36713 3.37264 3.36636 3.34092 3.29249 3.22311 3.1394 2.33038 
2.23517 2.14166 2.09985 2.15921 2.31688 2.52229 2.72914 2.9161 3.07825 
3.21678 3.33422 3.43311 3.5161 3.58641 3.64815 3.70605 3.76436 3.82439 
3.88083 3.91882 3.91991 3.87892 3.81009 3.73251 3.65866 3.59401 3.53995 
3.49586 3.46029 3.43152 3.40786 3.38789 3.37049 3.35497 3.34102 3.32872 
3.31851 3.31106 3.30715 3.3074 3.31187 3.31958 3.32781 3.33154 3.32383 
3.2978 3.2499 3.18203 3.10038 2.29605 2.19907 2.10339 2.05863 2.11372 
2.26593 2.46537 2.66616 2.84717 3.0036 3.13698 3.25029 3.34652 3.42858 
3.49971 3.56381 3.62529 3.6882 3.75394 3.81718 3.86176 3.86634 3.82511 
3.75528 3.67825 3.6065 3.54465 3.49334 3.45154 3.41763 3.38988 3.36672 
3.34683 3.32928 3.31349 3.29921 3.28654 3.27583 3.26764 3.26258 3.26107 
3.26304 3.26742 3.27162 3.27118 3.26016 3.23285 3.18636 3.12228 3.04572 
2.29706 2.21769 2.14301 2.1125 2.16231 2.2909 2.46179 2.63837 2.80122 
2.94437 3.06799 3.17419 3.2655 3.34449 3.41406 3.47754 3.53863 3.60058 
3.6642 3.72428 3.76627 3.77162 3.73557 3.67333 3.60407 3.53921 3.48302 
3.43609 3.39749 3.36577 3.3394 3.31699 3.29743 3.27993 3.26401 3.24949 
3.23642 3.22508 3.21589 3.20923 3.20533 3.20391 3.20386 3.20283 3.19709 
3.18199 3.15322 3.1087 3.0496 2.97976 2.31995 2.26702 2.2216 2.21023 
2.25494 2.35539 2.49002 2.63421 2.77217 2.89714 3.00756 3.10417 3.1885 
3.26247 3.32829 3.38854 3.44588 3.50241 3.55801 3.60792 3.64132 3.64582 
3.6186 3.56994 3.51375 3.45941 3.4111 3.36986 3.33523 3.30618 3.28151 
3.26013 3.24114 3.2239 3.20803 3.19336 3.17993 3.16792 3.15759 3.14914 
3.14259 3.13751 3.1328 3.12645 3.11553 3.09661 3.06669 3.02435 2.97042 
2.90761 2.34851 2.32072 2.30076 2.30486 2.34541 2.42277 2.52558 2.639 
2.75162 2.85712 2.9529 3.03852 3.11453 3.18205 3.24256 3.29776 3.34933 
3.39828 3.44387 3.48235 3.50679 3.51032 3.49166 3.45679 3.41448 3.37163 
3.332 3.29702 3.26676 3.24067 3.21795 3.19783 3.17961 3.16282 3.14714 
3.13244 3.11872 3.10608 3.09462 3.08441 3.0753 3.06678 3.05785 3.04686 
3.03163 3.00973 2.97916 2.93901 2.88986 2.83354 2.37135 2.36301 2.36122 
2.37555 2.41294 2.47405 2.55316 2.64182 2.73243 2.81988 2.90139 2.9758 
3.04297 3.10332 3.15766 3.20695 3.25207 3.29332 3.32981 3.35894 3.37674 
3.37977 3.36762 3.34366 3.31307 3.28051 3.24902 3.2201 3.19418 3.17113 
3.15048 3.13175 3.11446 3.09826 3.0829 3.06829 3.05437 3.04118 3.02872 
3.01694 3.00559 2.99417 2.9818 2.96719 2.94875 2.92484 2.89415 2.85612 
2.81115 2.76047 2.38336 2.38853 2.39856 2.41907 2.4541 2.50431 2.56691 
2.63715 2.71023 2.78234 2.85103 2.91492 2.97345 3.02657 3.07456 3.11784 
3.15676 3.19125 3.22055 3.24302 3.25654 3.25948 3.25187 3.23564 3.21385 
3.18952 3.16491 3.14136 3.11945 3.09929 3.08071 3.06342 3.04714 3.03163 
3.0167 3.00226 2.98825 2.97464 2.96137 2.94831 2.93517 2.92149 2.90654 
2.88935 2.86878 2.84372 2.81335 2.77733 2.73594 2.69002 
