# vtk DataFile Version 3.0
vtk output
ASCII
DATASET RECTILINEAR_GRID
FIELD FieldData 3
group_id 1 1 int
0 
base_index 1 3 int
0 0 0 
avtOriginalBounds 1 6 double
0 1 0 1.33333 0 0 
DIMENSIONS 31 41 1
X_COORDINATES 31 float
0 0.0333333 0.0666667 0.1 0.133333 0.166667 0.2 0.233333 0.266667 
0.3 0.333333 0.366667 0.4 0.433333 0.466667 0.5 0.533333 0.566667 
0.6 0.633333 0.666667 0.7 0.733333 0.766667 0.8 0.833333 0.866667 
0.9 0.933333 0.966667 1 
Y_COORDINATES 41 float
0 0.0333333 0.0666667 0.1 0.133333 0.166667 0.2 0.233333 0.266667 
0.3 0.333333 0.366667 0.4 0.433333 0.466667 0.5 0.533333 0.566667 
0.6 0.633333 0.666667 0.7 0.733333 0.766667 0.8 0.833333 0.866667 
0.9 0.933333 0.966667 1 1.03333 1.06667 1.1 1.13333 1.16667 
1.2 1.23333 1.26667 1.3 1.33333 
Z_COORDINATES 1 float
0 
POINT_DATA 1271
SCALARS u float
LOOKUP_TABLE default
-0.707107 -0.682323 -0.654942 -0.624714 -0.591392 -0.554739 -0.514546 -0.470652 -0.422965 
-0.371487 -0.316342 -0.257795 -0.196267 -0.132332 -0.0667044 -0.00019996 0.0663072 0.131943 
0.19589 0.257434 0.316 0.371167 0.422667 0.470378 0.514294 0.554508 0.591182 
0.624524 0.654769 0.682167 0.706965 -0.73105 -0.707107 -0.680457 -0.650805 -0.617844 
-0.581271 -0.540803 -0.496199 -0.44729 -0.394014 -0.336451 -0.274857 -0.209686 -0.141599 
-0.0714445 -0.00021424 0.0710193 0.141184 0.209286 0.274476 0.336094 0.393682 0.446984 
0.495919 0.540548 0.58104 0.617635 0.650617 0.680288 0.706955 0.730914 -0.755679 
-0.732788 -0.707107 -0.678287 -0.645958 -0.609737 -0.569249 -0.524152 -0.474172 -0.419151 
-0.359095 -0.294225 -0.225024 -0.152246 -0.0769076 -0.000230716 0.0764503 0.1518 0.224597 
0.293822 0.358719 0.418806 0.473858 0.523867 0.568993 0.609507 0.645753 0.678104 
0.706944 0.732642 0.755549 -0.780854 -0.759245 -0.734797 -0.707107 -0.675733 -0.640203 
-0.600032 -0.554748 -0.503938 -0.447303 -0.38473 -0.31637 -0.242707 -0.164599 -0.0832722 
-0.000249937 0.0827776 0.164119 0.24225 0.315943 0.384337 0.446945 0.503616 0.55446 
0.599776 0.639977 0.675533 0.70693 0.734641 0.759107 0.780732 -0.806385 -0.786301 
-0.763373 -0.737146 -0.707107 -0.672683 -0.633261 -0.588211 -0.536935 -0.478936 -0.413915 
-0.341887 -0.263295 -0.179098 -0.0907806 -0.000272653 0.090242 0.178579 0.262806 0.341434 
0.413504 0.478567 0.536608 0.587923 0.633008 0.672462 0.706914 0.736978 0.763226 
0.786172 0.806272 -0.832025 -0.81371 -0.792604 -0.768206 -0.739931 -0.707107 -0.668977 
-0.624724 -0.573512 -0.514571 -0.447321 -0.371535 -0.287532 -0.196342 -0.0997696 -0.00029991 
0.0991788 0.195777 0.287005 0.371055 0.446892 0.514193 0.573182 0.624438 0.668731 
0.706895 0.739748 0.768048 0.792468 0.813592 0.831922 -0.857463 -0.841149 -0.822165 
-0.799976 -0.773938 -0.743283 -0.707107 -0.664379 -0.613977 -0.554764 -0.485742 -0.40628 
-0.316417 -0.217172 -0.110722 -0.000333222 0.110068 0.216552 0.315848 0.405771 0.485297 
0.55438 0.613649 0.664101 0.706871 0.743083 0.773769 0.799832 0.822042 0.841044 
0.857372 -0.882319 -0.868209 -0.851625 -0.832018 -0.808707 -0.780846 -0.747396 -0.707107 
-0.658525 -0.600048 -0.530085 -0.447348 -0.351316 -0.242792 -0.124355 -0.000374859 0.123623 
0.242108 0.3507 0.446811 0.529627 0.599664 0.658205 0.706842 0.747176 0.780663 
0.808555 0.83189 0.851517 0.868117 0.882241 -0.906146 -0.894389 -0.880432 -0.86374 
-0.843624 -0.819197 -0.789324 -0.752559 -0.707107 -0.650818 -0.581304 -0.496259 -0.394109 
-0.274993 -0.141778 -0.000428388 0.140946 0.274231 0.393444 0.495698 0.580842 0.650443 
0.706804 0.752314 0.789126 0.819036 0.843491 0.86363 0.880341 0.894312 0.906081 
-0.928438 -0.919104 -0.907916 -0.894382 -0.87785 -0.857448 -0.832008 -0.799964 -0.759234 
-0.707107 -0.640222 -0.554796 -0.447392 -0.316512 -0.164799 -0.00049975 0.163839 0.315659 
0.446677 0.55422 0.639769 0.706753 0.758958 0.799748 0.831837 0.857311 0.87774 
0.894293 0.907843 0.919043 0.928387 -0.948645 -0.941701 -0.933301 -0.923029 -0.910315 
-0.894374 -0.874102 -0.847945 -0.813686 -0.76819 -0.707107 -0.624752 -0.514647 -0.371679 
-0.196568 -0.00059964 0.195438 0.370718 0.513891 0.624181 0.706682 0.767875 0.813451 
0.847766 0.873965 0.894266 0.91023 0.922961 0.933246 0.941655 0.948607 -0.9662 
-0.961485 -0.955736 -0.948636 -0.939741 -0.928419 -0.913749 -0.89436 -0.868174 -0.831986 
-0.780823 -0.707107 -0.600096 -0.447482 -0.243049 -0.000749438 0.24168 0.446409 0.599328 
0.706576 0.780457 0.83173 0.867991 0.894226 0.913648 0.928342 0.939681 0.948588 
0.955698 0.961454 0.966174 -0.980551 -0.977769 -0.974353 -0.9701 -0.964715 -0.957771 
-0.94862 -0.936257 -0.919064 -0.894338 -0.857402 -0.799928 -0.707107 -0.554892 -0.316796 
-0.000999001 0.31509 0.55374 0.706399 0.799496 0.85713 0.894159 0.918941 0.93617 
0.948557 0.957723 0.964679 0.970071 0.974331 0.97775 0.980535 -0.991205 -0.989924 
-0.988343 -0.986361 -0.983831 -0.980535 -0.976133 -0.970078 -0.961446 -0.948588 -0.928361 
-0.894293 -0.831922 -0.707107 -0.447749 -0.00149775 0.445604 0.706045 0.83141 0.894024 
0.928207 0.948493 0.961384 0.970035 0.976103 0.980513 0.983814 0.986347 0.988332 
0.989915 0.991198 -0.997773 -0.997445 -0.997038 -0.996527 -0.995871 -0.995011 -0.993851 
-0.992238 -0.989899 -0.986327 -0.98049 -0.970014 -0.948494 -0.894159 -0.707107 -0.00299101 
0.704983 0.89362 0.948303 0.969928 0.980445 0.9863 0.989881 0.992226 0.993843 
0.995005 0.995866 0.996523 0.997036 0.997442 0.997771 -1 -1 -1 
-1 -1 -1 -1 -1 -1 -1 -1 -1 
-1 -0.999999 -0.999996 -0.707107 0.999995 0.999999 1 1 1 
1 1 1 1 1 1 1 1 1 
1 -0.997799 -0.997475 -0.997073 -0.996568 -0.99592 -0.99507 -0.993924 -0.992329 
-0.990017 -0.986487 -0.980716 -0.970356 -0.949062 -0.89523 -0.709225 -0.00300901 0.707107 
0.894696 0.948873 0.970271 0.980671 0.986461 0.99 0.992318 0.993916 0.995064 
0.995915 0.996565 0.997071 0.997473 0.997797 -0.991257 -0.989983 -0.988411 -0.986441 
-0.983926 -0.980649 -0.976271 -0.970249 -0.961664 -0.948873 -0.928745 -0.894829 -0.83269 
-0.708167 -0.448824 -0.00150225 0.446676 0.707107 0.832179 0.894561 0.928592 0.948778 
0.961602 0.970207 0.976241 0.980626 0.983909 0.986427 0.988401 0.989975 0.99125 
-0.980626 -0.977854 -0.974452 -0.970214 -0.964849 -0.957929 -0.94881 -0.936488 -0.919349 
-0.894695 -0.857856 -0.800504 -0.707813 -0.55566 -0.317367 -0.001001 0.315658 0.554508 
0.707107 0.800072 0.857584 0.894517 0.919227 0.936401 0.948747 0.957882 0.964812 
0.970185 0.974429 0.977836 0.980611 -0.966296 -0.961594 -0.95586 -0.948778 -0.939906 
-0.928611 -0.913975 -0.894628 -0.868495 -0.83237 -0.78128 -0.707637 -0.600672 -0.448019 
-0.243392 -0.000750563 0.242022 0.446945 0.599904 0.707107 0.780915 0.832114 0.868312 
0.894494 0.913874 0.928534 0.939846 0.948731 0.955822 0.961563 0.96627 -0.948759 
-0.941829 -0.933445 -0.923193 -0.910502 -0.894588 -0.87435 -0.84823 -0.814016 -0.768567 
-0.707531 -0.625209 -0.515101 -0.372063 -0.196795 -0.00060036 0.195663 0.371102 0.514344 
0.624638 0.707107 0.768253 0.813781 0.848052 0.874212 0.894481 0.910417 0.923125 
0.93339 0.941783 0.948721 -0.928566 -0.919247 -0.908076 -0.894561 -0.878051 -0.857674 
-0.832264 -0.800252 -0.759555 -0.70746 -0.6406 -0.55518 -0.44775 -0.316797 -0.164959 
-0.00050025 0.163999 0.315943 0.447035 0.554604 0.640147 0.707107 0.75928 0.800036 
0.832093 0.857538 0.877941 0.894472 0.908002 0.919186 0.928515 -0.906285 -0.894542 
-0.880602 -0.863928 -0.843832 -0.819428 -0.789579 -0.752839 -0.70741 -0.65114 -0.581634 
-0.49658 -0.394395 -0.275211 -0.141897 -0.000428755 0.141065 0.274449 0.393729 0.496019 
0.581172 0.650765 0.707107 0.752594 0.789381 0.819267 0.843699 0.863818 0.88051 
0.894466 0.90622 -0.882465 -0.868369 -0.8518 -0.83221 -0.808917 -0.781074 -0.747643 
-0.707372 -0.658804 -0.600336 -0.530371 -0.447616 -0.351547 -0.242964 -0.124447 -0.000375141 
0.123714 0.242279 0.350931 0.447079 0.529913 0.599952 0.658485 0.707107 0.747423 
0.780892 0.808765 0.832082 0.851692 0.868277 0.882387 -0.857614 -0.841313 -0.822342 
-0.800168 -0.774145 -0.743505 -0.707342 -0.664627 -0.614232 -0.55502 -0.485989 -0.406506 
-0.316607 -0.21731 -0.110795 -0.000333444 0.110141 0.216689 0.316038 0.405997 0.485544 
0.554636 0.613904 0.664348 0.707107 0.743305 0.773976 0.800024 0.822219 0.841208 
0.857523 -0.832178 -0.813875 -0.79278 -0.768394 -0.740132 -0.707319 -0.669199 -0.624952 
-0.573743 -0.514798 -0.447536 -0.371727 -0.287691 -0.196456 -0.0998289 -0.00030009 0.0992377 
0.19589 0.287163 0.371247 0.447106 0.51442 0.573413 0.624666 0.668952 0.707107 
0.739949 0.768237 0.792644 0.813757 0.832076 -0.806538 -0.786464 -0.763547 -0.73733 
-0.7073 -0.672884 -0.633468 -0.588421 -0.537143 -0.479137 -0.414102 -0.342052 -0.263429 
-0.179192 -0.0908297 -0.000272802 0.0902909 0.178673 0.262939 0.341599 0.413691 0.478768 
0.536816 0.588132 0.633215 0.672663 0.707107 0.737162 0.7634 0.786336 0.806426 
-0.781006 -0.759406 -0.734966 -0.707284 -0.675917 -0.640392 -0.600224 -0.55494 -0.504126 
-0.447482 -0.384894 -0.316512 -0.242821 -0.164679 -0.0833136 -0.000250063 0.0828187 0.164199 
0.242364 0.316085 0.384501 0.447124 0.503804 0.554652 0.599968 0.640166 0.675716 
0.707107 0.73481 0.759268 0.780884 -0.755829 -0.732944 -0.70727 -0.678456 -0.646132 
-0.609914 -0.569427 -0.524328 -0.474342 -0.419311 -0.359239 -0.294349 -0.225122 -0.152314 
-0.0769429 -0.000230822 0.0764854 0.151869 0.224695 0.293946 0.358864 0.418965 0.474027 
0.524043 0.569171 0.609684 0.645926 0.678273 0.707107 0.732799 0.755699 -0.731196 
-0.707258 -0.680614 -0.650966 -0.618008 -0.581436 -0.540967 -0.496359 -0.447444 -0.394157 
-0.336579 -0.274966 -0.209772 -0.141659 -0.0714749 -0.000214332 0.0710496 0.141243 0.209372 
0.274585 0.336221 0.393824 0.447137 0.496079 0.540712 0.581205 0.617799 0.650778 
0.680445 0.707107 0.73106 -0.707248 -0.682469 -0.655092 -0.624866 -0.591545 -0.554892 
-0.514697 -0.470799 -0.423104 -0.371615 -0.316455 -0.257891 -0.196342 -0.132384 -0.066731 
-0.00020004 0.0663336 0.131995 0.195965 0.25753 0.316114 0.371295 0.422806 0.470524 
0.514445 0.554662 0.591336 0.624676 0.654919 0.682313 0.707107 -0.684082 -0.658654 
-0.630751 -0.600168 -0.566706 -0.530185 -0.490455 -0.447415 -0.401026 -0.351335 -0.298489 
-0.24275 -0.1845 -0.124241 -0.0625764 -0.000187535 0.0622035 0.123874 0.184144 0.242407 
0.298163 0.351027 0.400738 0.447147 0.490207 0.529956 0.566496 0.599976 0.630576 
0.658495 0.683937 -0.661762 -0.635855 -0.607606 -0.576847 -0.543423 -0.5072 -0.468074 
-0.425989 -0.380947 -0.33302 -0.282368 -0.22924 -0.173984 -0.117034 -0.0589079 -0.000176502 
0.0585568 0.116689 0.173647 0.228915 0.282056 0.332724 0.380668 0.425728 0.46783 
0.506974 0.543214 0.576655 0.607429 0.635693 0.661613 -0.640323 -0.614086 -0.585643 
-0.55486 -0.521617 -0.485816 -0.447392 -0.406322 -0.362634 -0.316417 -0.267834 -0.21712 
-0.164586 -0.110613 -0.0556452 -0.000166694 0.0553134 0.110286 0.164266 0.21681 0.267536 
0.316133 0.362364 0.406068 0.447154 0.485593 0.52141 0.554668 0.585466 0.613922 
0.640172 -0.619781 -0.593342 -0.564833 -0.534149 -0.501198 -0.465913 -0.428258 -0.388233 
-0.345884 -0.301312 -0.254674 -0.20619 -0.156139 -0.104856 -0.0527244 -0.00015792 0.0524099 
0.104546 0.155834 0.205894 0.254388 0.301038 0.345623 0.387985 0.428025 0.465695 
0.500993 0.533958 0.564656 0.593177 0.619628 -0.600134 -0.573603 -0.545134 -0.514647 
-0.482075 -0.447375 -0.41053 -0.371559 -0.330521 -0.287519 -0.242707 -0.196286 -0.148507 
-0.0996663 -0.0500945 -0.000150023 0.0497957 0.0993707 0.148217 0.196003 0.242433 0.287256 
0.330268 0.371319 0.410302 0.44716 0.481873 0.514458 0.544957 0.573438 0.599981 
-0.58137 -0.554837 -0.526497 -0.496286 -0.464158 -0.430089 -0.394078 -0.356156 -0.31639 
-0.274884 -0.231783 -0.187273 -0.14158 -0.0949635 -0.0477143 -0.000142878 0.0474296 0.0946815 
0.141303 0.187002 0.23152 0.27463 0.316146 0.355923 0.393856 0.429878 0.46396 
0.496099 0.526321 0.554673 0.581216 -0.563466 -0.537009 -0.508868 -0.478995 -0.44736 
-0.413953 -0.378785 -0.341897 -0.303359 -0.263273 -0.221776 -0.179039 -0.135264 -0.0906827 
-0.0455498 -0.000136382 0.0452779 0.0904133 0.134999 0.178779 0.221523 0.263028 0.303123 
0.341671 0.378569 0.413747 0.447165 0.47881 0.508694 0.536846 0.563312 -0.546394 
-0.520078 -0.492192 -0.462704 -0.431597 -0.39887 -0.364546 -0.328669 -0.291311 -0.252571 
-0.212578 -0.171488 -0.129483 -0.0867698 -0.043573 -0.000130452 0.0433128 0.0865118 0.129229 
0.171238 0.212334 0.252335 0.291082 0.328449 0.364335 0.398669 0.431406 0.462523 
0.49202 0.519915 0.546241 -0.530123 -0.503999 -0.476414 -0.447348 -0.416792 -0.384755 
-0.351265 -0.31637 -0.280143 -0.242678 -0.204096 -0.164539 -0.124172 -0.0831795 -0.0417604 
-0.000125016 0.0415111 0.0829321 0.123928 0.164299 0.203861 0.24245 0.279922 0.316157 
0.351059 0.384558 0.416604 0.447169 0.476244 0.503837 0.52997 -0.514617 -0.488728 
-0.46148 -0.432861 -0.402871 -0.371525 -0.338855 -0.304913 -0.269767 -0.23351 -0.196252 
-0.158125 -0.119277 -0.0798736 -0.0400926 -0.000120014 0.0398531 0.0796359 0.119042 0.157893 
0.196026 0.233289 0.269553 0.304705 0.338655 0.371333 0.402687 0.432685 0.461313 
0.488568 0.514465 
