# vtk DataFile Version 3.0
vtk output
ASCII
DATASET RECTILINEAR_GRID
FIELD FieldData 2
base_index 1 3 int
0 0 0 
avtOriginalBounds 1 6 double
-10 10 -10 10 0 0 
DIMENSIONS 50 50 1
X_COORDINATES 50 float
-10 -9.59184 -9.18367 -8.77551 -8.36735 -7.95918 -7.55102 -7.14286 -6.73469 
-6.32653 -5.91837 -5.5102 -5.10204 -4.69388 -4.28571 -3.87755 -3.46939 -3.06122 
-2.65306 -2.2449 -1.83673 -1.42857 -1.02041 -0.612245 -0.204082 0.204082 0.612245 
1.02041 1.42857 1.83673 2.2449 2.65306 3.06122 3.46939 3.87755 4.28571 
4.69388 5.10204 5.5102 5.91837 6.32653 6.73469 7.14286 7.55102 7.95918 
8.36735 8.77551 9.18367 9.59184 10 
Y_COORDINATES 50 float
-10 -9.59184 -9.18367 -8.77551 -8.36735 -7.95918 -7.55102 -7.14286 -6.73469 
-6.32653 -5.91837 -5.5102 -5.10204 -4.69388 -4.28571 -3.87755 -3.46939 -3.06122 
-2.65306 -2.2449 -1.83673 -1.42857 -1.02041 -0.612245 -0.204082 0.204082 0.612245 
1.02041 1.42857 1.83673 2.2449 2.65306 3.06122 3.46939 3.87755 4.28571 
4.69388 5.10204 5.5102 5.91837 6.32653 6.73469 7.14286 7.55102 7.95918 
8.36735 8.77551 9.18367 9.59184 10 
Z_COORDINATES 1 float
0 
POINT_DATA 2500
SCALARS rand float
LOOKUP_TABLE default
2.64979 2.84688 2.52166 2.84762 2.97576 2.27197 2.73828 2.77935 2.50829 
2.57799 2.95338 2.55081 2.55673 2.92261 2.97236 2.49907 2.82032 3.26636 
2.62059 3.1469 2.40319 2.74238 2.80945 2.9389 2.5229 2.9282 2.58697 
2.80337 2.47127 3.12703 2.81078 2.19727 2.69068 2.33862 2.78048 2.69365 
2.35417 2.48922 2.85723 3.00762 2.83065 2.30251 2.25001 2.51072 2.91255 
2.27179 2.40289 2.35185 2.29175 2.68868 2.80336 2.26827 2.37591 3.13378 
3.12651 2.53841 2.27198 2.6108 2.71349 2.60636 2.87736 2.31258 2.9836 
2.44344 2.52372 2.42756 3.1004 2.84116 2.63045 2.96165 3.06061 3.19825 
3.21785 2.8153 3.20025 2.91434 3.13786 2.83228 3.08295 2.34618 2.23927 
2.478 2.90109 2.75831 2.27981 2.21622 2.948 2.46207 3.09102 2.35979 
2.4564 2.90873 2.91554 3.15614 2.69176 2.65703 2.63983 3.12472 2.42643 
3.0385 2.98553 2.89719 3.03857 2.34789 2.5808 3.0868 2.45019 2.5648 
2.29243 2.98413 3.0325 2.36173 3.23184 3.0339 2.7243 2.49719 2.50679 
3.31463 3.05161 3.04894 3.12135 2.66477 2.78131 3.15817 2.44939 2.42233 
2.39504 3.18551 2.51491 2.57395 2.56591 3.15091 3.02705 2.29661 3.01686 
2.87005 2.50906 2.54088 2.53728 3.07004 3.205 3.1926 2.73831 2.994 
2.68391 3.20238 3.11389 2.98706 2.17285 2.52234 2.46287 2.83418 2.29955 
2.54731 2.82246 3.17487 2.42037 2.64586 3.11652 2.35513 2.66144 3.17857 
2.41453 2.48625 2.46623 3.05917 3.12223 3.27051 2.50785 2.74061 3.30496 
3.30779 3.21358 3.18323 2.74196 2.49609 3.22179 2.4412 2.3199 2.66488 
2.67648 3.02658 3.00116 2.46518 2.34993 3.07687 2.93167 2.42654 2.78555 
2.29913 3.08677 3.02181 2.72563 2.53158 2.65992 2.29791 3.00715 3.19908 
2.94163 2.7266 2.27929 3.23439 2.94187 2.9192 2.66147 2.79774 2.3645 
2.8761 3.3549 3.32203 2.59189 3.24376 2.86934 2.9657 2.55069 2.67261 
2.79787 3.25431 2.85526 2.84977 3.13064 3.15633 3.42555 3.19692 2.48308 
2.658 2.95789 2.52121 2.83291 2.55158 3.10516 2.87062 2.69154 3.06571 
2.72908 2.90973 2.739 2.61675 3.23967 3.13931 2.51905 2.51091 3.22047 
3.12843 3.24593 2.42328 2.65667 2.68484 2.59731 2.49054 3.22379 3.05479 
2.66263 2.69474 3.1853 2.56807 3.11579 3.29376 2.89251 3.42114 3.09441 
2.84742 2.78003 3.20792 3.00933 3.48251 3.17775 2.60249 3.27405 3.2588 
2.98762 3.48148 2.84265 3.1267 2.79947 2.96451 2.82784 3.26139 2.5275 
2.40395 3.13513 3.21813 3.12156 2.7641 2.71762 2.70042 3.08112 2.44802 
3.18427 2.60359 3.31748 3.01251 2.53143 2.38505 2.83341 3.23559 3.16203 
2.43556 2.51989 2.35148 3.15669 3.29529 2.38752 2.80345 2.60271 2.92994 
2.53732 2.67319 2.96479 2.674 3.2978 2.85738 3.14618 2.7144 2.65223 
3.3302 2.80437 2.71297 2.7842 2.63907 3.10589 3.30818 2.63342 3.24955 
3.15275 3.11168 3.1469 2.94384 2.66725 3.22681 3.18136 3.31905 2.8214 
3.31411 2.72551 3.31782 3.30338 2.67769 2.43224 2.95395 3.09544 3.3039 
2.42686 3.02967 2.74921 3.00409 3.31304 2.62499 3.25731 2.43661 3.03304 
3.13847 2.67408 2.73649 2.68901 2.86868 3.2444 3.09274 3.07012 2.98815 
2.61141 2.78829 2.93247 3.37744 2.75447 3.32564 2.71442 3.14097 2.83056 
3.11312 2.98689 3.10178 3.35212 2.90006 3.35414 2.70181 3.28595 2.94927 
2.74132 3.00345 2.4635 2.91256 3.33003 3.40705 2.6901 2.51366 3.18184 
3.22623 2.93908 2.89769 3.31788 3.26493 2.69175 2.62549 2.83676 3.12303 
2.59099 2.42009 3.09481 2.37899 3.40359 3.02866 2.64632 2.53484 2.99697 
2.81015 3.037 2.99114 3.24105 3.02604 3.40073 3.44107 3.35671 3.56906 
3.14889 3.16786 3.57753 3.33247 3.18033 2.97062 3.60194 3.3082 3.38905 
3.6131 3.45904 2.84699 3.32199 2.81174 2.98985 2.59125 2.836 3.14901 
2.95502 3.04478 2.84564 2.50748 2.95648 2.51521 3.4163 2.93916 2.50368 
2.55595 2.68945 2.78873 2.68099 2.89809 2.60238 2.56617 2.82084 3.13319 
3.13845 2.59084 2.65386 3.06572 3.44656 2.67046 3.04615 3.23682 2.9281 
3.10051 3.02152 3.11479 3.45812 3.36554 2.85899 3.10098 3.4972 3.24829 
3.04238 3.46627 3.09829 3.08252 2.73521 3.35918 3.54738 3.1467 3.51468 
2.90032 3.13448 2.83199 2.93461 3.40732 3.38094 3.13941 2.80245 2.89787 
3.00318 3.42726 2.89101 2.68648 3.37222 2.84355 3.01426 2.55993 2.70038 
3.23018 3.05681 2.85489 3.08354 2.92068 3.1907 2.56131 2.71229 3.0049 
3.62275 3.19969 2.89502 2.70984 3.39813 3.40813 3.4966 3.52952 3.33764 
3.0631 2.94563 2.96808 3.58791 3.03904 3.32995 3.08068 3.67624 3.26171 
3.62406 3.45865 2.76079 2.68494 2.7615 2.86347 3.56391 3.07531 3.24473 
2.80182 3.51707 2.99766 3.48639 2.59991 3.50363 2.8228 2.72458 3.46686 
2.8738 2.65911 2.72883 2.79476 2.98206 3.15077 3.37828 2.51006 2.67799 
2.74938 3.28679 3.1929 2.77564 3.37576 3.58898 3.70348 3.63738 3.30779 
3.28902 3.69432 2.95228 2.86831 3.49868 3.4699 3.05098 3.53437 3.28775 
3.5705 3.52303 3.84261 3.07348 2.89689 3.37227 3.3385 3.18734 3.64059 
3.46103 3.59977 2.81148 3.16902 3.25088 3.05141 3.20143 2.95173 2.65543 
2.74466 2.88772 3.33291 3.5101 2.83535 2.61238 2.56764 3.13364 3.41682 
2.59812 2.84913 3.2443 2.82431 3.14964 2.53184 3.37283 2.71198 2.82515 
3.21032 2.84116 3.21294 2.88446 3.08145 3.78935 3.73274 3.40068 3.79282 
3.32961 3.25957 3.09679 3.62692 3.15424 3.56815 3.80408 3.48524 3.37566 
3.1166 3.67763 2.8107 3.01979 3.11651 3.57741 3.63581 2.96432 3.03322 
2.82045 2.77835 3.08074 2.63758 3.054 3.41738 3.50932 3.28908 2.83204 
3.17637 3.25864 3.05735 2.82835 2.58056 2.61318 3.12522 2.62172 2.71165 
2.7327 2.4279 3.16821 3.62993 2.79699 2.96133 3.16407 2.9826 3.33224 
3.44955 3.79852 3.4679 3.57851 2.97751 3.39769 3.35109 3.51485 3.28402 
3.96885 3.26847 3.05211 3.03983 3.29851 3.05346 3.70491 3.22058 3.03406 
3.28694 3.04069 3.13108 2.82932 2.90449 3.31011 3.64401 3.52828 2.9266 
3.52713 3.25906 2.69504 2.76898 3.25843 3.59321 3.22461 2.87047 3.22719 
3.30283 2.78537 2.85039 3.41114 3.2708 2.89386 3.27717 2.93898 2.81725 
3.14659 3.05977 3.04726 3.01178 3.25748 3.08451 3.74009 3.37055 3.20588 
3.04516 3.92169 4.00061 3.84662 3.10187 3.63243 3.98435 3.36407 3.79363 
3.76882 3.01598 3.13458 3.9077 3.2532 3.73347 3.21556 3.45898 3.06205 
3.47057 3.61753 2.70428 3.5316 3.38156 2.7646 3.21151 3.40144 2.66676 
2.65813 3.55056 2.91356 3.10373 3.32541 3.20101 3.37072 2.78166 3.11656 
3.2537 2.6848 2.81087 2.87472 3.28964 3.29189 3.55536 3.22887 3.74273 
3.81342 3.27548 3.91818 3.28033 3.98035 3.54931 3.97612 3.2263 3.29796 
3.59202 3.94061 4.02298 3.34773 3.23511 3.08154 4.02656 3.37175 3.34153 
3.22081 3.21348 3.74113 3.07202 3.63057 3.16236 3.31128 2.75719 3.28817 
3.46463 3.45228 2.93529 2.79891 3.43709 3.63924 2.79331 2.88883 3.11646 
2.83688 2.7673 3.07728 3.03328 3.17932 2.51179 2.95491 3.38027 3.10995 
3.45785 3.083 3.57054 3.92501 3.32804 3.12247 3.54644 3.82685 3.73679 
3.34737 3.88143 3.69137 3.4686 3.99795 4.15108 3.34057 4.02655 4.04345 
3.72765 3.52862 3.1202 3.52559 3.07748 3.33892 3.07321 3.18915 3.83968 
3.82614 3.4019 3.16785 3.76184 3.13211 3.5578 2.85798 3.52153 3.4904 
3.61271 3.2873 2.73132 3.26345 3.08323 2.90102 3.36184 2.57864 3.24562 
3.39506 2.88361 2.81123 2.91169 3.56099 3.29466 3.66145 3.52401 3.66848 
3.04262 4.06598 3.64809 3.93504 4.10017 3.62421 3.86763 3.7724 3.61081 
3.74419 3.45146 3.8871 3.36186 4.06954 3.54748 3.79142 4.0788 3.962 
3.98341 3.7195 3.06911 2.98097 3.18123 3.78079 3.1463 3.28589 3.35788 
3.63081 3.4668 3.28456 3.69895 3.60218 3.12269 3.54122 3.12579 3.22152 
3.57978 3.0428 3.20977 3.22688 3.39574 3.2369 3.2378 3.26689 2.55494 
3.38297 3.70787 3.58127 3.04278 3.45325 3.42027 4.01461 4.15629 3.42255 
4.07754 3.32092 3.93447 4.26626 3.56707 3.82307 3.74205 3.7229 4.03803 
4.12793 3.36787 3.43082 3.81198 3.51359 3.93403 3.85447 3.5475 3.27623 
3.37428 3.01415 3.90141 3.47585 3.52956 3.74898 2.92202 3.43412 3.08477 
2.80914 2.85683 3.12583 3.06685 2.9313 3.46185 3.36309 3.04478 3.00176 
3.07669 3.44827 3.09024 3.11317 3.26828 3.46997 3.34515 3.07574 3.08929 
3.89077 3.11017 3.60938 4.12406 3.45014 3.66256 4.19838 4.02552 4.25815 
4.11819 4.13082 4.13998 4.53616 3.9834 3.6199 3.44047 3.68687 3.67337 
3.76776 3.34419 3.94781 3.91635 3.93383 3.08213 3.77521 3.34477 3.61342 
3.70428 3.47656 3.03156 3.70488 3.58016 2.84162 3.72423 2.79891 2.78103 
3.45628 3.51463 2.92733 3.40789 3.08985 2.90862 2.90618 2.84724 3.07182 
3.10942 3.12523 3.4176 3.74815 3.10623 3.99937 3.2764 3.94426 4.0529 
3.94683 3.98511 3.7993 3.7506 3.65266 4.51332 4.28292 4.62276 4.17092 
4.23119 4.14842 3.55287 4.20409 4.26036 3.36269 3.91704 3.55735 4.20592 
3.2287 4.06365 3.69751 3.62142 3.39532 3.89027 3.22802 3.29979 3.63249 
2.93764 3.2256 3.10053 3.07769 3.19675 2.97684 2.71052 3.20894 2.77938 
3.07299 2.83181 2.77944 3.25969 2.71115 2.51093 3.79605 3.04308 3.52363 
3.35121 3.86106 3.64142 3.50679 3.36717 3.31809 4.34389 3.95003 4.08828 
4.45722 4.03274 4.26284 4.68598 3.84963 4.40343 4.50944 3.85227 3.67272 
3.9442 4.43463 4.38258 4.12131 3.39692 3.29801 3.43383 3.53625 3.91802 
3.17809 3.85718 3.30043 3.39883 3.01117 3.27078 3.03856 3.73997 3.09929 
3.61325 2.94166 2.85175 2.93204 2.79943 3.59531 2.76485 3.41933 2.76288 
2.62273 2.63965 3.15826 3.27521 3.52681 3.81362 3.79436 3.22911 3.89544 
3.2832 3.53679 3.76224 3.94683 4.43009 4.65017 4.43838 4.50772 4.94973 
4.37012 4.75217 4.27302 3.9622 3.90942 4.47121 4.17142 4.14894 4.2981 
4.27278 3.98833 4.18387 4.09667 3.71166 3.86372 3.73762 3.09797 3.12356 
3.75404 3.01324 3.02767 3.02648 3.74178 3.62445 3.5785 3.30674 3.28641 
2.71451 3.03616 2.89866 2.83615 2.68457 3.50939 2.88202 2.99563 3.86368 
3.25158 3.10331 3.18462 3.69236 3.04954 3.90599 3.9041 4.17378 3.82306 
4.18878 4.33635 4.48655 4.60272 4.68738 4.76093 4.6372 4.79412 4.24907 
4.19953 3.98711 4.49283 4.4546 4.29813 4.07252 3.92958 3.65486 3.42603 
3.78919 3.57147 3.36694 3.8156 3.59974 3.06993 3.8495 3.41843 3.20315 
3.4563 3.2626 2.86984 3.12835 3.25758 2.97409 2.71323 2.91529 3.00695 
2.68447 3.44008 2.76995 2.87964 3.60215 3.46671 3.21893 3.6407 3.86317 
3.178 3.53405 3.42929 3.21262 4.18717 4.11402 4.63731 5.03176 4.76066 
4.78418 4.81417 4.42047 4.08666 4.24208 4.1648 4.48694 3.95561 4.54575 
4.27109 4.01664 3.8477 4.29642 3.98403 3.64756 3.63108 3.49334 3.45764 
3.28204 3.24564 3.90723 3.74482 3.34403 3.69976 3.64773 3.21117 3.04025 
2.93355 3.49926 3.15122 3.36878 3.43407 2.69763 2.63506 2.76108 3.05296 
3.07306 2.96283 3.17619 3.24138 2.83189 3.72003 3.03457 3.23564 2.96865 
3.81971 4.46201 4.16781 5.19658 4.72672 5.22087 4.26484 4.08986 4.40977 
4.39621 4.45344 3.95133 4.25847 4.40757 4.24915 4.63915 4.18397 3.79612 
3.81218 3.86434 4.08891 4.1149 3.82131 3.82431 3.5025 3.9713 2.97534 
3.1921 3.26887 3.31292 3.58876 3.77878 3.01755 3.11245 3.43436 3.20674 
3.30934 2.66985 2.68083 2.95853 2.83993 3.65955 2.97343 2.9437 3.55809 
2.68363 3.05889 2.78735 2.57091 3.1684 3.81642 3.86176 4.36557 5.0438 
4.80234 5.12019 4.39283 4.75819 4.21135 4.28286 4.56302 4.1113 4.30436 
3.93629 4.34737 3.89476 3.80575 4.0453 3.59882 3.34167 3.92515 3.48472 
3.19608 3.38921 3.15561 3.1176 3.80507 3.23153 3.91739 3.60382 3.67154 
3.77371 3.58393 3.1635 2.80611 3.65706 2.7416 3.32135 2.69023 3.06605 
2.75319 3.25037 3.16065 3.69384 3.54991 2.83181 2.69489 2.55479 2.46913 
2.29149 3.27131 4.07329 4.62688 4.32712 4.11136 4.23353 4.44337 4.91122 
4.08286 3.96021 3.87461 4.61697 4.66486 4.01966 4.59785 4.63847 3.82643 
4.29237 3.56146 3.87183 3.9743 3.67571 3.62661 4.10444 3.4499 3.25419 
3.8882 3.61263 3.78787 3.62392 3.15879 2.97436 3.7911 3.51303 3.05393 
3.62838 3.17273 3.5218 3.11014 3.29617 3.42359 3.17141 3.55182 3.20656 
3.54351 3.25657 2.74567 2.77187 2.37985 3.11344 2.80743 3.28591 4.16553 
3.99349 4.08129 4.59977 4.15113 3.90809 4.50972 4.22914 4.5138 3.95628 
4.05004 4.34257 4.01302 4.43531 3.75394 4.18142 3.64401 3.90814 3.67928 
3.33653 4.06612 4.11069 3.69692 3.24635 3.63786 3.2593 3.1138 3.62727 
3.7382 3.00404 3.6218 3.71418 3.49957 3.04309 3.38845 3.50912 3.25467 
2.96498 3.59001 3.00041 3.43067 2.75194 3.34579 3.20398 2.51141 2.8004 
3.27438 3.21234 3.22043 3.57693 4.18558 4.61827 4.02192 4.87586 4.53914 
4.36149 4.52171 4.27798 4.33047 3.74567 3.88758 4.51407 3.90648 3.56293 
3.76076 3.97837 4.01428 4.17186 3.47805 3.90555 3.25348 3.41035 3.16466 
3.3122 3.98015 3.9023 3.77729 3.51456 3.27631 3.12192 2.93975 3.67174 
2.77054 3.41839 3.36792 2.70683 2.82374 2.59761 3.52034 3.45658 3.06374 
3.18154 3.06819 3.04322 3.47893 3.27201 3.68743 3.94495 4.22723 3.86539 
4.77987 4.18343 4.10376 3.99277 4.02062 3.97836 4.29557 4.34396 4.05193 
3.60776 3.93332 4.29151 3.76273 4.2067 3.95086 4.04429 4.2415 4.11522 
3.96142 4.16345 3.58723 3.54927 3.96525 3.61068 3.07883 3.25122 3.02303 
3.31269 3.68674 3.41942 3.02392 3.52995 3.13613 3.37417 2.85017 3.17622 
2.96069 3.37842 2.57632 3.05573 3.18424 2.70367 2.81476 3.12103 3.05549 
2.95303 3.28659 3.63497 3.97808 4.21935 4.78765 3.93257 4.55313 3.91013 
4.62149 4.03546 4.30622 3.72672 4.28325 4.11518 3.63903 4.28748 4.26736 
3.55193 3.55268 3.48821 3.28244 4.02029 3.81513 3.93717 3.85989 3.93018 
3.63023 3.20059 3.63125 3.23768 3.78745 3.1299 3.02014 3.17861 3.74822 
3.68228 3.05814 2.76286 3.13 3.61151 2.7796 3.15587 3.21223 2.96487 
2.65244 3.45611 2.9569 2.89629 3.67406 3.06957 3.7128 3.94172 4.16087 
4.03254 4.04385 4.12323 4.47138 4.27995 4.57882 4.3869 3.69262 3.96681 
3.69298 4.27234 4.28356 3.5817 4.17563 3.62974 3.86748 3.41202 3.98719 
3.18526 4.05395 3.48254 4.0147 3.99236 3.98069 3.58067 3.69173 3.05942 
3.31895 3.47137 2.88026 2.95832 3.23981 3.47558 3.21542 2.73297 3.57462 
2.9267 3.19837 2.56656 2.82705 3.14677 3.34798 3.08046 2.74422 3.15835 
2.93989 3.83747 3.85874 4.21611 3.82437 4.24315 4.32673 4.2534 3.86924 
4.09951 3.74218 3.61838 3.53383 4.34589 3.94921 3.6194 4.07067 4.05549 
3.96143 3.39814 4.05552 3.40067 3.88161 3.31589 3.44431 3.41372 3.98625 
3.53966 3.15355 3.6408 3.48604 2.98512 3.48476 3.42784 3.22788 3.55812 
3.44951 3.5754 3.48041 2.81697 2.68318 2.85425 3.52946 2.67876 3.37504 
3.36335 2.89124 3.43864 2.70784 3.08749 3.03444 3.31435 4.17424 3.45346 
3.65538 4.30111 4.37033 3.99707 4.04779 4.2801 3.72579 4.07748 3.75721 
4.09864 4.24502 3.83392 4.07533 3.63162 3.52674 3.36192 4.01377 3.8947 
3.21631 3.16804 3.21604 3.30459 3.03619 3.09378 3.1786 3.90806 2.89591 
3.83404 3.27791 3.35163 3.53821 3.65124 3.19779 3.04998 3.42991 3.57191 
3.2567 2.76929 2.70161 3.09988 3.18116 3.4391 2.75414 3.3753 3.23049 
3.59329 3.45172 3.19295 3.28824 4.13301 3.93137 4.1647 4.53524 3.73504 
4.28102 4.26734 4.23264 4.3908 3.92569 4.17093 3.40148 3.67457 3.81515 
3.69619 3.86368 3.79146 3.42197 3.82807 3.47545 3.48608 3.01236 3.81545 
3.18566 3.69095 3.24489 3.08368 3.43347 3.61663 2.96775 3.24344 3.25309 
3.55319 3.50186 2.75892 3.37921 3.46417 2.66562 2.97764 3.40141 3.35529 
2.84787 2.91375 3.53623 2.66086 2.68619 3.14794 3.64171 3.13928 3.29446 
4.10509 3.91045 4.29749 4.37324 3.71466 4.38539 3.99838 4.28767 3.46701 
3.67308 3.33126 3.54456 3.48818 3.59614 3.54084 3.86692 3.54203 3.61375 
3.86847 3.14141 3.50672 3.85179 3.74955 3.30292 3.33676 3.2414 3.78284 
3.28096 3.10059 3.19919 3.30478 3.65085 3.07104 2.99539 3.09413 2.72175 
2.84488 2.79994 3.38673 2.86723 2.81025 3.24984 3.4585 2.60693 3.17114 
2.82982 3.62917 2.96847 3.80579 3.30439 3.99717 3.69124 3.56718 3.80557 
4.32007 3.5399 4.26753 4.31575 4.07925 4.1785 3.94902 3.38837 3.64037 
3.35156 3.95561 3.64522 3.25992 3.7311 3.27391 2.96354 3.40748 3.71614 
3.65381 3.49112 3.27449 2.83479 2.8603 3.74496 3.14976 2.84232 3.45753 
3.42647 2.92956 3.38989 2.82233 2.99048 2.99966 3.50661 3.0514 2.71244 
2.50973 3.18995 3.24275 3.39594 3.21939 3.43661 2.81048 3.57372 3.89779 
3.36184 3.91577 3.47547 4.16429 3.44144 3.60932 3.93462 3.53157 3.85377 
4.14835 3.32933 3.93382 4.10524 3.85741 3.45845 3.88632 3.31663 3.02635 
2.96686 3.62644 2.90772 3.24551 3.35371 2.76739 2.94104 3.61022 3.68012 
2.88442 3.00353 2.97679 2.824 2.69409 3.06449 3.45584 3.52199 3.07289 
3.39179 3.54201 2.94985 3.21394 2.733 2.82878 2.99396 3.41751 3.49089 
3.31631 2.93356 3.38484 3.78043 3.37251 3.65115 3.42713 3.81616 3.48943 
3.82372 3.99334 4.16911 3.68153 4.32969 4.06439 3.66549 4.08491 3.1458 
3.71147 3.53069 3.6214 3.23656 3.11892 3.07143 3.28717 3.56643 3.16073 
3.56731 2.96303 3.38302 3.3524 3.00322 2.89408 2.78569 3.69045 2.72277 
3.57565 2.96231 3.47432 2.69488 3.43438 3.00752 3.37908 2.87475 2.80993 
2.95145 2.97646 2.89644 3.29155 2.86265 3.54701 3.40388 3.56238 3.6969 
3.77994 3.70841 3.79141 3.37074 3.6109 3.98474 3.65362 4.11245 3.72695 
3.61577 3.69139 4.04479 4.18913 3.90359 3.64389 3.63001 2.89191 3.0367 
3.57053 3.08884 2.96749 2.89613 2.98614 2.85271 2.87342 3.02159 2.77017 
3.26263 3.32919 2.75013 3.08547 3.19346 2.86168 3.4619 2.73583 3.33581 
3.4488 3.33223 2.71759 2.81929 3.05811 2.66763 3.14135 3.0732 3.31604 
3.315 3.44007 3.31377 3.64329 3.49014 3.79404 3.58127 3.98542 3.41631 
3.56062 3.96695 3.73865 3.87822 4.12858 4.4511 4.0043 3.99705 3.82023 
4.04539 3.873 3.57451 3.12383 3.61331 3.01307 2.7884 2.51009 2.42417 
2.51188 2.94207 2.51968 3.42913 2.70087 3.22675 3.32194 3.06391 2.97541 
2.84007 3.53602 3.58754 3.41761 3.12366 3.32688 3.0517 2.85697 2.51571 
3.26999 3.25175 2.78744 3.13638 3.0378 3.52103 3.47074 2.81379 3.72364 
3.30183 3.42858 3.48021 3.48726 3.37026 3.52704 3.86915 3.71575 4.07424 
4.50189 3.90763 3.63392 4.3829 3.60742 3.81903 3.6866 2.97434 3.59494 
3.17039 2.59589 2.55359 2.31649 2.68432 3.12072 2.57249 3.18908 2.75202 
2.77962 2.61181 3.03533 2.67299 3.20566 2.73294 3.59352 3.32829 3.3977 
2.62147 3.21607 2.62529 2.95898 3.27542 3.38211 2.88263 3.33971 2.71452 
2.67141 3.05604 3.49433 3.12432 3.61526 3.63314 3.2911 3.2932 4.12998 
3.63247 3.99162 3.81359 3.79871 3.79701 4.74424 4.64888 4.12767 3.89639 
4.00956 3.4977 3.22069 3.12126 3.55744 2.54889 2.98859 2.50661 2.36612 
2.63357 2.27716 3.05145 2.75135 3.29211 2.54177 2.72872 2.92457 2.95551 
2.78252 3.41294 2.89204 2.8035 3.22317 2.68696 3.25845 2.76461 2.67292 
2.52909 2.93559 2.85732 2.66752 3.41222 2.73348 3.45055 3.74424 3.23584 
3.74432 3.38895 3.7043 3.28038 3.2956 4.01842 3.69777 4.15761 4.4531 
3.92004 4.01827 4.41332 3.90522 4.36748 3.74713 3.53746 3.31295 3.67276 
2.9004 3.11269 2.64566 2.28181 2.2289 2.15438 2.62395 2.26634 2.41386 
2.53961 2.52644 3.1527 2.70392 2.64581 2.5415 2.59017 3.10613 3.21767 
2.86097 3.14731 2.61809 2.75092 2.67757 2.92726 2.62107 2.97977 2.86974 
2.97791 2.77069 3.16686 3.51106 3.99063 3.45732 3.80784 3.46722 3.62674 
3.28109 3.41645 3.58964 4.29001 4.10924 4.52216 4.16568 4.24316 4.21383 
4.09116 3.77283 3.47638 3.34087 3.23577 2.92328 2.63022 2.75312 2.57513 
2.39476 2.73109 2.63318 2.9447 3.05115 2.50811 2.5825 2.89596 2.9678 
2.56592 2.52628 2.55037 3.4588 3.00153 2.74839 3.44936 3.3989 2.8746 
2.88925 2.56982 2.68589 2.95729 2.85877 2.98547 3.4854 3.33528 3.104 
3.79844 3.91205 3.86613 3.84 4.1305 4.25321 3.98605 3.45043 3.57224 
3.55155 3.70347 4.45465 3.75557 4.44674 4.15932 4.35303 3.56546 3.12305 
2.8844 2.85437 2.4685 2.41468 3.18315 2.86575 2.41295 2.15597 2.60484 
2.96376 3.00502 2.93674 2.46403 3.06832 3.35361 3.28018 2.99516 3.21702 
3.16018 2.95575 3.39564 2.49797 2.6205 2.8269 2.4493 3.18409 2.92593 
2.82242 2.77016 2.83569 3.1741 3.64067 3.69675 3.67919 3.49306 4.11535 
3.65802 3.42948 3.65102 3.89438 4.03461 4.13348 3.3447 4.01099 3.52393 
4.17283 4.29389 3.37576 3.89153 3.52656 3.2706 3.58094 3.31406 2.56433 
2.50499 2.44513 2.51144 2.4661 2.80356 2.86319 2.6517 2.55923 2.5789 
3.34971 2.43104 2.66724 2.6892 2.96782 3.20444 3.0592 2.82093 3.23041 
3.04484 2.45583 3.06415 2.79278 2.36843 2.77268 3.55166 3.64543 3.32041 
3.10451 3.49131 4.09013 4.06389 3.53087 3.85927 4.13214 4.10201 3.59542 
3.2943 3.40184 3.46 3.63234 4.27154 3.30852 4.23418 3.59944 3.88111 
3.32512 3.47975 3.25896 3.41995 3.36061 2.3551 2.62696 2.73322 2.45928 
2.37015 2.38579 2.7799 2.95984 2.82628 2.83146 2.97663 2.6115 2.59985 
2.85843 3.37046 3.21281 3.00622 2.78923 2.76238 2.7511 3.13058 2.95957 
2.83099 2.5536 3.34337 3.6408 3.03829 3.27596 3.43996 3.87875 4.21586 
3.75095 3.45034 3.6422 3.24192 3.61087 3.49164 3.93245 3.38899 3.42611 
4.05768 3.34034 3.69988 3.93477 3.76146 2.87558 3.1255 3.2005 2.76815 
2.58844 3.09281 2.54387 2.62199 2.85866 3.22127 2.96756 3.04848 3.04274 
2.78034 3.18716 3.2408 2.82673 2.78592 3.31896 3.2701 2.56659 3.00675 
3.19055 2.9728 2.30391 3.08935 2.35272 2.77191 2.88124 
