# vtk DataFile Version 3.0
vtk output
ASCII
DATASET RECTILINEAR_GRID
DIMENSIONS 50 50 1
X_COORDINATES 50 float
-10 -9.59184 -9.18367 -8.77551 -8.36735 -7.95918 -7.55102 -7.14286 -6.73469 
-6.32653 -5.91837 -5.5102 -5.10204 -4.69388 -4.28571 -3.87755 -3.46939 -3.06122 
-2.65306 -2.2449 -1.83673 -1.42857 -1.02041 -0.612245 -0.204082 0.204082 0.612245 
1.02041 1.42857 1.83673 2.2449 2.65306 3.06122 3.46939 3.87755 4.28571 
4.69388 5.10204 5.5102 5.91837 6.32653 6.73469 7.14286 7.55102 7.95918 
8.36735 8.77551 9.18367 9.59184 10 
Y_COORDINATES 50 float
-10 -9.59184 -9.18367 -8.77551 -8.36735 -7.95918 -7.55102 -7.14286 -6.73469 
-6.32653 -5.91837 -5.5102 -5.10204 -4.69388 -4.28571 -3.87755 -3.46939 -3.06122 
-2.65306 -2.2449 -1.83673 -1.42857 -1.02041 -0.612245 -0.204082 0.204082 0.612245 
1.02041 1.42857 1.83673 2.2449 2.65306 3.06122 3.46939 3.87755 4.28571 
4.69388 5.10204 5.5102 5.91837 6.32653 6.73469 7.14286 7.55102 7.95918 
8.36735 8.77551 9.18367 9.59184 10 
Z_COORDINATES 1 float
0 
CELL_DATA 2401
POINT_DATA 2500
VECTORS grad float
0.0295129 0.108089 0 0.0229166 0.112549 0 0.00907707 0.113436 0 
-0.00527221 0.110406 0 -0.0177884 0.103621 0 -0.0235994 0.093711 0 
-0.0130558 0.082164 0 0.0286365 0.0731663 0 0.112391 0.0772599 0 
0.225139 0.111975 0 0.322567 0.191314 0 0.354099 0.312662 0 
0.294182 0.44696 0 0.16031 0.526532 0 0.012292 0.494882 0 
-0.0893952 0.388845 0 -0.128317 0.281189 0 -0.123672 0.20304 0 
-0.0983835 0.153737 0 -0.065985 0.125496 0 -0.0334009 0.11262 0 
-0.00777853 0.112655 0 -0.00210017 0.123929 0 -0.0279496 0.13758 0 
-0.0719387 0.135484 0 -0.101392 0.11728 0 -0.103705 0.0996232 0 
-0.0908468 0.0890819 0 -0.0753345 0.0841259 0 -0.0622683 0.0822803 0 
-0.0525751 0.0818547 0 -0.0458074 0.0818636 0 -0.041243 0.0817792 0 
-0.0382175 0.081362 0 -0.0362058 0.0805513 0 -0.0348296 0.0793893 0 
-0.0338408 0.0779703 0 -0.0330983 0.0763987 0 -0.0325421 0.0747656 0 
-0.0321651 0.0731299 0 -0.0319864 0.0715147 0 -0.032028 0.06991 0 
-0.0322992 0.0682867 0 -0.0327879 0.0666076 0 -0.0334615 0.064841 0 
-0.0342723 0.0629669 0 -0.0351642 0.0609788 0 -0.0360801 0.0588819 0 
-0.0369678 0.0566903 0 -0.0373983 0.054424 0 0.0339723 0.11773 0 
0.02559 0.123875 0 0.00800556 0.126049 0 -0.0101798 0.1241 0 
-0.0261357 0.118771 0 -0.0343279 0.111558 0 -0.0233282 0.104744 0 
0.0261844 0.102257 0 0.131796 0.111644 0 0.282166 0.145054 0 
0.42291 0.215335 0 0.481922 0.329005 0 0.401117 0.468491 0 
0.184271 0.555606 0 -0.0565513 0.508496 0 -0.196241 0.379835 0 
-0.221219 0.262416 0 -0.187398 0.183647 0 -0.137156 0.136088 0 
-0.0865435 0.108744 0 -0.0398216 0.0944752 0 -0.00212383 0.0896869 0 
0.0103621 0.0922695 0 -0.022172 0.097406 0 -0.0820886 0.0963948 0 
-0.119323 0.0888094 0 -0.117803 0.0820654 0 -0.0985955 0.0789944 0 
-0.0787354 0.0786756 0 -0.0634039 0.07973 0 -0.0527834 0.0811644 0 
-0.0458452 0.0823736 0 -0.0414938 0.0830445 0 -0.0388315 0.0830719 0 
-0.0371921 0.0824896 0 -0.0361201 0.0814107 0 -0.0353361 0.0799837 0 
-0.0347006 0.0783553 0 -0.0341765 0.0766456 0 -0.0337905 0.074931 0 
-0.0335963 0.0732399 0 -0.0336421 0.0715605 0 -0.0339504 0.0698573 0 
-0.0345107 0.0680884 0 -0.0352818 0.0662198 0 -0.0362034 0.0642327 0 
-0.0372067 0.0621242 0 -0.0382243 0.059904 0 -0.0391967 0.0575906 0 
-0.0396646 0.0552067 0 0.0418025 0.138739 0 0.031235 0.148796 0 
0.00930202 0.153585 0 -0.0125496 0.153239 0 -0.0303303 0.14971 0 
-0.0376264 0.146279 0 -0.0223575 0.146723 0 0.0355366 0.154136 0 
0.155189 0.16939 0 0.32883 0.192176 0 0.506517 0.228761 0 
0.607254 0.296403 0 0.520783 0.399531 0 0.200315 0.469596 0 
-0.16348 0.412014 0 -0.335474 0.286882 0 -0.324504 0.187085 0 
-0.250001 0.126654 0 -0.173287 0.0918128 0 -0.107598 0.0706298 0 
-0.0524578 0.0558043 0 -0.0099842 0.0427585 0 0.00561893 0.0292091 0 
-0.0238244 0.0184737 0 -0.0805352 0.0197947 0 -0.115722 0.0327121 0 
-0.11352 0.0472189 0 -0.0942366 0.0588868 0 -0.074599 0.067843 0 
-0.0597795 0.0747727 0 -0.0499314 0.0800121 0 -0.0439274 0.0836885 0 
-0.0405447 0.0859093 0 -0.0387724 0.086841 0 -0.037867 0.0867103 0 
-0.0373355 0.0857778 0 -0.0368962 0.0843068 0 -0.0364363 0.0825351 0 
-0.0359664 0.0806469 0 -0.0355709 0.0787553 0 -0.0353569 0.076898 0 
-0.0354106 0.0750546 0 -0.0357713 0.0731729 0 -0.0364254 0.0711986 0 
-0.0373172 0.0690942 0 -0.0383679 0.0668463 0 -0.0394929 0.0644629 0 
-0.0406137 0.0619658 0 -0.041665 0.0593835 0 -0.0421661 0.0567449 0 
0.0540866 0.162764 0 0.0404357 0.178047 0 0.0124478 0.185442 0 
-0.014055 0.185007 0 -0.0330957 0.179926 0 -0.0373147 0.175049 0 
-0.0154713 0.174898 0 0.0488517 0.18102 0 0.169836 0.188281 0 
0.341538 0.185385 0 0.527136 0.166655 0 0.652691 0.140746 0 
0.57431 0.119535 0 0.196754 0.103207 0 -0.239265 0.0840303 0 
-0.42117 0.064977 0 -0.381447 0.0513047 0 -0.282671 0.0421594 0 
-0.193179 0.0349835 0 -0.122552 0.0274523 0 -0.067693 0.0172704 0 
-0.028719 0.0021168 0 -0.0139226 -0.018141 0 -0.0315865 -0.0347708 0 
-0.0678503 -0.0310524 0 -0.0918987 -0.007173 0 -0.0916287 0.0201487 0 
-0.0779715 0.0421914 0 -0.0628495 0.0585926 0 -0.0512347 0.0707278 0 
-0.0438675 0.0795742 0 -0.039948 0.0856894 0 -0.0383413 0.0894789 0 
-0.0380304 0.0913336 0 -0.0382553 0.0916545 0 -0.0385236 0.0908421 0 
-0.0385789 0.0892803 0 -0.0383605 0.0873107 0 -0.0379564 0.0851969 0 
-0.0375394 0.0830945 0 -0.037297 0.0810462 0 -0.0373672 0.0790098 0 
-0.0378064 0.0769057 0 -0.0385893 0.0746626 0 -0.0396341 0.0722431 0 
-0.0408348 0.0696488 0 -0.0420872 0.0669084 0 -0.0433037 0.0640632 0 
-0.0444176 0.0611546 0 -0.0449418 0.0582187 0 0.0723702 0.187712 0 
0.0539135 0.210148 0 0.0162621 0.220242 0 -0.0180656 0.217468 0 
-0.0402889 0.206471 0 -0.0426545 0.193258 0 -0.0163859 0.181901 0 
0.0489194 0.172381 0 0.159553 0.157576 0 0.307204 0.122893 0 
0.461878 0.0539075 0 0.560134 -0.0564333 0 0.483245 -0.19772 0 
0.164811 -0.298587 0 -0.20171 -0.269646 0 -0.3682 -0.170321 0 
-0.347322 -0.0902689 0 -0.266322 -0.0442345 0 -0.187994 -0.0212727 0 
-0.125311 -0.0125364 0 -0.0777934 -0.0138537 0 -0.0453956 -0.0234107 0 
-0.0312687 -0.0380691 0 -0.0367357 -0.0486706 0 -0.0529374 -0.0428799 0 
-0.0645207 -0.0203645 0 -0.0641551 0.0074175 0 -0.0557927 0.0323428 0 
-0.0460626 0.0524694 0 -0.038798 0.0681388 0 -0.0349697 0.0799136 0 
-0.0340226 0.088253 0 -0.0349005 0.0936107 0 -0.0365968 0.0964726 0 
-0.0383586 0.0973336 0 -0.0397097 0.0966893 0 -0.0404276 0.0950362 0 
-0.0405197 0.0928406 0 -0.0401825 0.0904722 0 -0.0397215 0.0881418 0 
-0.0394416 0.0858886 0 -0.0395511 0.0836298 0 -0.0401185 0.0812415 0 
-0.0410879 0.0786327 0 -0.0423309 0.0757772 0 -0.0437027 0.0727088 0 
-0.0450785 0.0694942 0 -0.0463675 0.066204 0 -0.0475095 0.0628964 0 
-0.0480379 0.0596116 0 0.0989587 0.207275 0 0.0729659 0.239237 0 
0.0197679 0.252797 0 -0.0278263 0.246526 0 -0.0573056 0.227591 0 
-0.0618847 0.202724 0 -0.0363481 0.173987 0 0.0245268 0.140712 0 
0.120348 0.0993892 0 0.237869 0.0404694 0 0.34781 -0.0502511 0 
0.401063 -0.183284 0 0.332157 -0.343398 0 0.124828 -0.449027 0 
-0.110999 -0.412224 0 -0.241793 -0.289334 0 -0.255361 -0.177941 0 
-0.213675 -0.105451 0 -0.161481 -0.0640149 0 -0.115133 -0.0428864 0 
-0.0785673 -0.035118 0 -0.0529345 -0.036271 0 -0.0391825 -0.0416483 0 
-0.0363972 -0.0442287 0 -0.0395442 -0.036999 0 -0.0416013 -0.0191342 0 
-0.0389214 0.00405937 0 -0.0329195 0.027366 0 -0.0270534 0.0482727 0 
-0.0237905 0.0658998 0 -0.0237534 0.0799504 0 -0.0262509 0.0904356 0 
-0.0301217 0.0976142 0 -0.0343075 0.10187 0 -0.0380386 0.103632 0 
-0.040821 0.103397 0 -0.0424275 0.101765 0 -0.0429245 0.0993772 0 
-0.0426552 0.0967669 0 -0.042123 0.0942252 0 -0.041809 0.0917747 0 
-0.0420143 0.0892597 0 -0.0428035 0.0864911 0 -0.0440537 0.0833606 0 
-0.045558 0.0798783 0 -0.0471178 0.0761428 0 -0.048592 0.0722849 0 
-0.0499015 0.068418 0 -0.05101 0.0646176 0 -0.0515113 0.0609214 0 
0.136294 0.206678 0 0.0994356 0.248817 0 0.0235514 0.267555 0 
-0.0432717 0.260917 0 -0.0840909 0.239912 0 -0.0962585 0.20984 0 
-0.0783979 0.166486 0 -0.0256786 0.108386 0 0.0593104 0.0422524 0 
0.157564 -0.0288516 0 0.238125 -0.113544 0 0.266987 -0.220037 0 
0.217501 -0.333286 0 0.0959847 -0.401178 0 -0.0420163 -0.378397 0 
-0.133916 -0.292452 0 -0.163439 -0.201286 0 -0.152396 -0.132433 0 
-0.12543 -0.0875964 0 -0.0964138 -0.0610632 0 -0.071178 -0.0472574 0 
-0.0519258 -0.0416935 0 -0.0392264 -0.0400137 0 -0.0320865 -0.0373916 0 
-0.0278429 -0.0297425 0 -0.0234622 -0.0158929 0 -0.0176549 0.00239086 0 
-0.0115793 0.0225378 0 -0.00752884 0.0425555 0 -0.00712031 0.0610601 0 
-0.010434 0.0770997 0 -0.0163588 0.0901622 0 -0.0234657 0.100071 0 
-0.0305789 0.106775 0 -0.0368324 0.110326 0 -0.0415772 0.111075 0 
-0.044447 0.109759 0 -0.0455174 0.107315 0 -0.0453345 0.104551 0 
-0.0447138 0.101878 0 -0.0444071 0.0992726 0 -0.0448347 0.0964561 0 
-0.0460176 0.0931476 0 -0.0477007 0.0892401 0 -0.0495487 0.08483 0 
-0.0512961 0.0801371 0 -0.0528034 0.0753945 0 -0.0540348 0.0707732 0 
-0.0550061 0.0663596 0 -0.0554303 0.0621746 0 0.183236 0.161508 0 
0.133842 0.207017 0 0.031868 0.232924 0 -0.055469 0.238276 0 
-0.108383 0.235913 0 -0.13531 0.223402 0 -0.137802 0.180476 0 
-0.099707 0.100215 0 -0.0168895 0.00870281 0 0.0820732 -0.0685561 0 
0.156624 -0.135712 0 0.181321 -0.205022 0 0.151016 -0.270514 0 
0.0797172 -0.307128 0 -0.00227308 -0.29554 0 -0.0646819 -0.246059 0 
-0.0953425 -0.185641 0 -0.0999845 -0.133071 0 -0.0901112 -0.0942052 0 
-0.074794 -0.0681602 0 -0.0591976 -0.0521036 0 -0.0456908 -0.0429558 0 
-0.0348806 -0.0375824 0 -0.0261261 -0.0328389 0 -0.0180455 -0.0261257 0 
-0.0094679 -0.0161211 0 -0.000490725 -0.00282192 0 0.00724506 0.0130931 0 
0.0114689 0.0307461 0 0.0107537 0.0491532 0 0.00534874 0.0672997 0 
-0.00327909 0.0842292 0 -0.0135094 0.0989143 0 -0.0240532 0.110189 0 
-0.0337378 0.117177 0 -0.041388 0.119907 0 -0.0461876 0.119408 0 
-0.0481322 0.117181 0 -0.0480927 0.114483 0 -0.0474015 0.111878 0 
-0.0472307 0.109227 0 -0.0481393 0.106047 0 -0.0500195 0.101939 0 
-0.0523713 0.0968481 0 -0.0546609 0.0910497 0 -0.0565532 0.0849752 0 
-0.057956 0.079014 0 -0.0589364 0.0734038 0 -0.0596085 0.0682238 0 
-0.0598813 0.0634496 0 0.227312 0.0532117 0 0.170852 0.0842108 0 
0.0548109 0.117444 0 -0.0402832 0.155449 0 -0.0989646 0.204637 0 
-0.151695 0.248051 0 -0.201585 0.236231 0 -0.197452 0.141989 0 
-0.109461 0.0205833 0 0.013149 -0.0663024 0 0.10166 -0.121001 0 
0.132185 -0.165361 0 0.115395 -0.203065 0 0.0709581 -0.223803 0 
0.0190532 -0.219144 0 -0.0240171 -0.192542 0 -0.0504507 -0.155767 0 
-0.0609605 -0.119593 0 -0.0605192 -0.0895984 0 -0.0543122 -0.0671914 0 
-0.0459736 -0.0516981 0 -0.0374046 -0.0416394 0 -0.0291094 -0.035243 0 
-0.0206298 -0.0306832 0 -0.0111251 -0.0263436 0 -0.000158429 -0.0210284 0 
0.0115593 -0.0139055 0 0.0219887 -0.0042457 0 0.0285313 0.00870299 0 
0.0294333 0.0255043 0 0.0246421 0.0460838 0 0.0152559 0.0691885 0 
0.00249362 0.0920944 0 -0.0123159 0.111264 0 -0.0271135 0.124033 0 
-0.0393466 0.130017 0 -0.0471736 0.130972 0 -0.050442 0.129416 0 
-0.0506378 0.127257 0 -0.0499701 0.125162 0 -0.0502379 0.122724 0 
-0.0521223 0.119128 0 -0.0552164 0.113842 0 -0.0585904 0.106964 0 
-0.0614215 0.0991138 0 -0.0633318 0.0910717 0 -0.0643748 0.0834516 0 
-0.064825 0.0765545 0 -0.0649603 0.0704113 0 -0.0649786 0.0649096 0 
0.245234 -0.100393 0 0.198075 -0.101295 0 0.103106 -0.0652019 0 
0.0317242 0.0143044 0 -0.0157807 0.130011 0 -0.103717 0.254184 0 
-0.243864 0.308266 0 -0.315354 0.22582 0 -0.225181 0.0855555 0 
-0.0595107 -0.0145609 0 0.0575662 -0.0718816 0 0.0992568 -0.111057 0 
0.0925739 -0.140429 0 0.0636374 -0.15727 0 0.0289878 -0.158493 0 
-0.00130451 -0.145731 0 -0.0223938 -0.124557 0 -0.0338159 -0.101027 0 
-0.0377097 -0.0793226 0 -0.0368938 -0.0614666 0 -0.0336457 -0.0479988 0 
-0.0292356 -0.0386736 0 -0.0239244 -0.0328866 0 -0.0172268 -0.029906 0 
-0.00839067 -0.028999 0 0.00297022 -0.0294178 0 0.016292 -0.0301445 0 
0.0298536 -0.0294143 0 0.0412189 -0.0243514 0 0.0481345 -0.0114221 0 
0.049033 0.0117176 0 0.0427315 0.0437589 0 0.0285662 0.0789906 0 
0.00788575 0.109739 0 -0.0149845 0.130558 0 -0.0344498 0.140849 0 
-0.0467889 0.143888 0 -0.0518467 0.143775 0 -0.052347 0.143128 0 
-0.0519346 0.142476 0 -0.0532647 0.140851 0 -0.0570214 0.136913 0 
-0.0621827 0.129997 0 -0.0670995 0.120539 0 -0.0705535 0.109764 0 
-0.0722154 0.0990105 0 -0.0724732 0.0891933 0 -0.0719767 0.0806465 0 
-0.0712534 0.0732819 0 -0.0708847 0.0668431 0 0.225507 -0.246846 0 
0.206043 -0.281767 0 0.170411 -0.251851 0 0.15493 -0.152637 0 
0.140915 -0.00828838 0 0.0265598 0.151163 0 -0.229949 0.258061 0 
-0.420162 0.238122 0 -0.349842 0.144445 0 -0.144288 0.0569597 0 
0.00516343 -0.00712603 0 0.0636376 -0.0532891 0 0.0691822 -0.085624 0 
0.0528944 -0.105005 0 0.0305919 -0.111849 0 0.00991845 -0.108046 0 
-0.0057463 -0.0969911 0 -0.0157256 -0.0824191 0 -0.0209592 -0.0673577 0 
-0.0229884 -0.053777 0 -0.0231806 -0.0427685 0 -0.0222924 -0.0348749 0 
-0.0203418 -0.0303589 0 -0.0167422 -0.0293674 0 -0.0106369 -0.0319933 0 
-0.00130391 -0.0381608 0 0.0115628 -0.0471652 0 0.0277818 -0.0567082 0 
0.0465235 -0.0617686 0 0.0655022 -0.0548802 0 0.079823 -0.0299122 0 
0.0825289 0.0121573 0 0.0684739 0.0616574 0 0.039251 0.105502 0 
0.00399613 0.134955 0 -0.0260159 0.149767 0 -0.0442471 0.155587 0 
-0.0512024 0.15836 0 -0.0519366 0.161097 0 -0.0522467 0.163692 0 
-0.0558015 0.164164 0 -0.0629764 0.160362 0 -0.0715899 0.151473 0 
-0.0788237 0.13856 0 -0.0829504 0.123867 0 -0.0839023 0.109581 0 
-0.0827388 0.0969838 0 -0.0807365 0.0863644 0 -0.0787637 0.0774181 0 
-0.0778562 0.0696986 0 0.175391 -0.341726 0 0.19307 -0.403849 0 
0.232237 -0.387744 0 0.275287 -0.300101 0 0.28802 -0.189572 0 
0.162632 -0.0894578 0 -0.156905 -0.00200772 0 -0.42897 0.0728774 0 
-0.406343 0.1062 0 -0.211082 0.0844576 0 -0.0526826 0.0365387 0 
0.0207588 -0.0095585 0 0.0408581 -0.0441129 0 0.0374129 -0.0661998 0 
0.0259463 -0.0771818 0 0.013553 -0.0791606 0 0.00323349 -0.0746675 0 
-0.00418258 -0.0662803 0 -0.0090676 -0.0562328 0 -0.0123045 -0.0462421 0 
-0.0147436 -0.0375645 0 -0.016826 -0.0311525 0 -0.0184169 -0.0278009 0 
-0.0188612 -0.028239 0 -0.017184 -0.0331524 0 -0.0122016 -0.0430457 0 
-0.00225544 -0.0576927 0 0.0152501 -0.0748205 0 0.0430469 -0.0882164 0 
0.0799909 -0.0874354 0 0.11607 -0.0629358 0 0.134301 -0.0149918 0 
0.12191 0.0438359 0 0.081183 0.0964373 0 0.0292813 0.131837 0 
-0.013817 0.150635 0 -0.0381966 0.160668 0 -0.0463372 0.168967 0 
-0.0470147 0.178163 0 -0.0488673 0.186959 0 -0.0565951 0.191873 0 
-0.0697126 0.189486 0 -0.0839842 0.178726 0 -0.0947055 0.16169 0 
-0.099533 0.142246 0 -0.0990986 0.123766 0 -0.0956895 0.107897 0 
-0.0915424 0.0947311 0 -0.0879192 0.083663 0 -0.0863239 0.0740786 0 
0.101262 -0.357866 0 0.160026 -0.43799 0 0.274158 -0.435925 0 
0.353101 -0.371623 0 0.351559 -0.316458 0 0.214124 -0.29956 0 
-0.0676137 -0.262813 0 -0.311955 -0.137048 0 -0.338262 -0.0030241 0 
-0.213949 0.0502229 0 -0.0888527 0.0400106 0 -0.0170139 0.00930381 0 
0.0125409 -0.0197498 0 0.0198255 -0.0407382 0 0.0176311 -0.0531788 0 
0.0124327 -0.0583342 0 0.00713396 -0.0579407 0 0.00270909 -0.05378 0 
-0.000920951 -0.0474724 0 -0.00432009 -0.0404018 0 -0.00809109 -0.0337468 0 
-0.0125288 -0.0285567 0 -0.0174283 -0.0258102 0 -0.0220937 -0.0264315 0 
-0.0254436 -0.031261 0 -0.0258442 -0.0409206 0 -0.0202121 -0.0553371 0 
-0.00274187 -0.0725678 0 0.0339086 -0.086993 0 0.0907827 -0.0887983 0 
0.152267 -0.0686108 0 0.189301 -0.0261002 0 0.179903 0.0276042 0 
0.127252 0.0771283 0 0.0581938 0.112687 0 0.00281513 0.135328 0 
-0.0259147 0.152458 0 -0.0337069 0.169997 0 -0.0339452 0.189372 0 
-0.0385371 0.208026 0 -0.0532738 0.220713 0 -0.0761236 0.222067 0 
-0.0993861 0.210411 0 -0.115304 0.189388 0 -0.120874 0.165192 0 
-0.118251 0.142573 0 -0.111774 0.123303 0 -0.10497 0.107081 0 
-0.0994162 0.0930437 0 -0.097025 0.080627 0 0.0151449 -0.263233 0 
0.115012 -0.332135 0 0.298603 -0.341769 0 0.394753 -0.313174 0 
0.360083 -0.305552 0 0.216277 -0.327741 0 0.00560737 -0.31615 0 
-0.169182 -0.211549 0 -0.219073 -0.0777846 0 -0.168047 0.000602722 0 
-0.0936016 0.0191048 0 -0.0390016 0.00793672 0 -0.00918394 -0.0106337 0 
0.00398391 -0.0270041 0 0.00835037 -0.0383769 0 0.00879109 -0.0446432 0 
0.0077877 -0.0466099 0 0.00628573 -0.0453369 0 0.00431061 -0.0418905 0 
0.00142097 -0.0372663 0 -0.00289851 -0.0323925 0 -0.00888938 -0.028155 0 
-0.0162917 -0.0253906 0 -0.024312 -0.0248299 0 -0.0316731 -0.0270067 0 
-0.0362777 -0.0321206 0 -0.0339026 -0.0397557 0 -0.0164058 -0.0483533 0 
0.0268164 -0.0546335 0 0.0983732 -0.0538227 0 0.178769 -0.0418029 0 
0.230516 -0.0182724 0 0.225139 0.0125554 0 0.166266 0.0446616 0 
0.087481 0.0740273 0 0.025954 0.100841 0 -0.00352812 0.12784 0 
-0.00942361 0.15718 0 -0.00898468 0.188842 0 -0.0175259 0.219748 0 
-0.0425543 0.243195 0 -0.0800147 0.251238 0 -0.116664 0.241054 0 
-0.139925 0.218204 0 -0.146348 0.191495 0 -0.140987 0.166544 0 
-0.131181 0.144576 0 -0.121802 0.124767 0 -0.114373 0.10645 0 
-0.111157 0.0897263 0 -0.0365431 -0.0682362 0 0.0814897 -0.0837508 0 
0.293119 -0.105338 0 0.389318 -0.137627 0 0.336991 -0.181607 0 
0.203526 -0.224063 0 0.0485783 -0.228819 0 -0.0735891 -0.172423 0 
-0.12611 -0.0889879 0 -0.11706 -0.0279784 0 -0.0815187 -0.00295591 0 
-0.0467524 -0.00202632 0 -0.0224 -0.0111242 0 -0.00791776 -0.0219303 0 
-7.92742e-06 -0.0308883 0 0.00419974 -0.0369409 0 0.00644022 -0.0401116 0 
0.00742847 -0.0408366 0 0.0071497 -0.0396825 0 0.00517792 -0.0372339 0 
0.00102013 -0.0340555 0 -0.00552684 -0.0306742 0 -0.0141031 -0.0275357 0 
-0.0237098 -0.0249165 0 -0.0327343 -0.0228097 0 -0.0385932 -0.0208203 0 
-0.0364448 -0.0181431 0 -0.0176197 -0.0138549 0 0.0284392 -0.00789273 0 
0.103613 -0.00223374 0 0.187817 0.000159204 0 0.243659 -0.000723779 0 
0.242837 -0.000303149 0 0.188724 0.00764489 0 0.114373 0.0267875 0 
0.0566276 0.0558928 0 0.0304242 0.0911944 0 0.0272955 0.130061 0 
0.0286227 0.171224 0 0.0158154 0.21213 0 -0.0217838 0.245909 0 
-0.0782644 0.262695 0 -0.132421 0.258428 0 -0.164862 0.240017 0 
-0.172534 0.217375 0 -0.165171 0.194985 0 -0.153551 0.172349 0 
-0.143096 0.148397 0 -0.134457 0.123923 0 -0.130473 0.100937 0 
-0.0158843 0.121413 0 0.0779103 0.15854 0 0.244727 0.131105 0 
0.318485 0.0496494 0 0.273647 -0.0361665 0 0.169065 -0.098865 0 
0.0572476 -0.123828 0 -0.0293512 -0.10823 0 -0.0746284 -0.0706093 0 
-0.0820151 -0.0363706 0 -0.0676496 -0.0176827 0 -0.0471699 -0.013019 0 
-0.0290879 -0.0162906 0 -0.0157802 -0.0224935 0 -0.00666028 -0.0288115 0 
-0.000432193 -0.0339919 0 0.00389206 -0.0376277 0 0.00671482 -0.0397162 0 
0.00791329 -0.0404229 0 0.00704795 -0.0399495 0 0.00366122 -0.0384532 0 
-0.00236952 -0.0359969 0 -0.010534 -0.0325104 0 -0.019586 -0.0277482 0 
-0.0275769 -0.0212471 0 -0.0316111 -0.0123329 0 -0.0269372 -0.00034982 0 
-0.00615543 0.0144838 0 0.0384375 0.0293392 0 0.106425 0.0376408 0 
0.180279 0.0324159 0 0.230054 0.0138674 0 0.233508 -0.00791132 0 
0.193357 -0.0189826 0 0.135729 -0.0106388 0 0.0903609 0.0154743 0 
0.0706401 0.0517187 0 0.070606 0.0920341 0 0.0730845 0.133972 0 
0.0571591 0.175932 0 0.00801086 0.213216 0 -0.0674961 0.237811 0 
-0.139342 0.246087 0 -0.180978 0.243594 0 -0.19138 0.236696 0 
-0.186013 0.225159 0 -0.177769 0.205218 0 -0.170228 0.176429 0 
-0.161834 0.143468 0 -0.15713 0.112214 0 0.0377105 0.208695 0 
0.0911819 0.257994 0 0.184228 0.235694 0 0.222046 0.152213 0 
0.188477 0.0593519 0 0.115864 -0.0115702 0 0.0392129 -0.0509717 0 
-0.0203701 -0.0608036 0 -0.0542502 -0.0519523 0 -0.0641333 -0.0380327 0 
-0.0581671 -0.0278023 0 -0.0453603 -0.023515 0 -0.0318745 -0.0238442 0 
-0.0204386 -0.0267497 0 -0.0115063 -0.0306709 0 -0.0046165 -0.0346569 0 
0.000715852 -0.038197 0 0.00463325 -0.0410522 0 0.00691646 -0.0431138 0 
0.00714767 -0.0442742 0 0.00497276 -0.044313 0 0.000415921 -0.0428317 0 
-0.00585449 -0.0392583 0 -0.0124466 -0.0329229 0 -0.0173189 -0.023173 0 
-0.0176959 -0.0095346 0 -0.00962812 0.00791776 0 0.0120693 0.0276378 0 
0.0515962 0.0451737 0 0.10669 0.05292 0 0.164044 0.0440636 0 
0.203332 0.0195081 0 0.209987 -0.00993907 0 0.185996 -0.0295554 0 
0.14883 -0.0298998 0 0.118985 -0.0119178 0 0.106984 0.0167484 0 
0.109549 0.048946 0 0.112521 0.0811194 0 0.0950588 0.112379 0 
0.0400954 0.142477 0 -0.0453926 0.17075 0 -0.126637 0.197078 0 
-0.174253 0.221955 0 -0.190969 0.242757 0 -0.196649 0.250951 0 
-0.202281 0.237293 0 -0.204846 0.202786 0 -0.198672 0.159423 0 
-0.192981 0.119144 0 0.0827134 0.199918 0 0.104909 0.236557 0 
0.138946 0.222456 0 0.142143 0.16205 0 0.109864 0.0869724 0 
0.0587417 0.0229844 0 0.0080142 -0.0193864 0 -0.0303317 -0.0401769 0 
-0.0518574 -0.0453719 0 -0.0578651 -0.0427088 0 -0.0531319 -0.0381733 0 
-0.0432117 -0.0347899 0 -0.0323226 -0.0333874 0 -0.022607 -0.0337783 0 
-0.0145675 -0.0354714 0 -0.00795829 -0.0379558 0 -0.00250316 -0.040805 0 
0.00179803 -0.0437016 0 0.00469124 -0.0463831 0 0.00584877 -0.0485271 0 
0.00510377 -0.0496254 0 0.00268519 -0.0489219 0 -0.000625312 -0.0454797 0 
-0.00350076 -0.0383916 0 -0.0041886 -0.0270631 0 -0.000520289 -0.0114882 0 
0.0102352 0.007406 0 0.0311005 0.0271548 0 0.0637197 0.0430961 0 
0.105315 0.0489135 0 0.146867 0.0398936 0 0.176051 0.0174746 0 
0.184444 -0.00964916 0 0.173396 -0.0299747 0 0.153367 -0.0359387 0 
0.137009 -0.0276854 0 0.131504 -0.0109698 0 0.134977 0.00774574 0 
0.136518 0.0244981 0 0.118517 0.0391074 0 0.0663818 0.0561122 0 
-0.0128957 0.0834411 0 -0.0881375 0.1254 0 -0.135299 0.177168 0 
-0.162384 0.227196 0 -0.191476 0.258213 0 -0.225935 0.252801 0 
-0.248098 0.213031 0 -0.245475 0.160932 0 -0.237688 0.114919 0 
0.110988 0.14267 0 0.11372 0.162857 0 0.109722 0.152585 0 
0.0865623 0.112946 0 0.0494119 0.060134 0 0.00950533 0.0113457 0 
-0.0239484 -0.0240643 0 -0.0463557 -0.0445324 0 -0.056782 -0.0530443 0 
-0.0569347 -0.0540568 0 -0.0502482 -0.0514868 0 -0.0405744 -0.0479519 0 
-0.0308629 -0.0448997 0 -0.0225226 -0.0429919 0 -0.0156838 -0.0423908 0 
-0.00995016 -0.0429574 0 -0.00502992 -0.0444211 0 -0.000944853 -0.046485 0 
0.00209093 -0.0488243 0 0.00390542 -0.0509942 0 0.00457799 -0.0523201 0 
0.00456166 -0.0518596 0 0.00467575 -0.0485249 0 0.00597 -0.0413812 0 
0.00958455 -0.030021 0 0.0167732 -0.0148671 0 0.0290149 0.00261396 0 
0.0477594 0.0197119 0 0.0733548 0.0324476 0 0.103487 0.0363976 0 
0.132605 0.0288739 0 0.153789 0.011379 0 0.162538 -0.0100902 0 
0.159707 -0.0278883 0 0.15112 -0.036872 0 0.143954 -0.0368071 0 
0.142415 -0.031456 0 0.145017 -0.0256972 0 0.143882 -0.022765 0 
0.126673 -0.0218115 0 0.0844291 -0.0156931 0 0.0238953 0.0070461 0 
-0.0329107 0.0521488 0 -0.0724574 0.112878 0 -0.109924 0.175061 0 
-0.171043 0.21847 0 -0.247463 0.220438 0 -0.296716 0.182983 0 
-0.296784 0.133808 0 -0.285007 0.0927476 0 0.123088 0.0674443 0 
0.114824 0.0714023 0 0.0890347 0.0592837 0 0.0496919 0.0323337 0 
0.00826377 -0.00117439 0 -0.0254565 -0.0318031 0 -0.047864 -0.0539916 0 
-0.0593117 -0.0666872 0 -0.0613818 -0.0715293 0 -0.0563077 -0.0710137 0 
-0.047027 -0.067439 0 -0.0366246 -0.0625582 0 -0.0273626 -0.0576067 0 
-0.020098 -0.0533938 0 -0.014533 -0.0503482 0 -0.00998861 -0.0485799 0 
-0.00603074 -0.0479892 0 -0.00260514 -0.0483561 0 0.000182033 -0.0493545 0 
0.00235295 -0.0504947 0 0.00423837 -0.0510587 0 0.00648034 -0.050105 0 
0.00985307 -0.0466223 0 0.0150032 -0.0398322 0 0.0223256 -0.0295439 0 
0.0321146 -0.0164005 0 0.0448142 -0.00195611 0 0.0609342 0.0113856 0 
0.0804054 0.0206416 0 0.101741 0.0229896 0 0.121848 0.0170537 0 
0.137087 0.00406933 0 0.145177 -0.0121824 0 0.146614 -0.0270573 0 
0.144448 -0.0373772 0 0.142425 -0.0428436 0 0.142614 -0.0456946 0 
0.143668 -0.0490524 0 0.140404 -0.0548069 0 0.125589 -0.0613377 0 
0.0952394 -0.0619564 0 0.0549462 -0.047498 0 0.0176948 -0.0144863 0 
-0.0123867 0.0303152 0 -0.0567924 0.075106 0 -0.146099 0.106837 0 
-0.261422 0.113113 0 -0.334729 0.0961466 0 -0.33571 0.0721494 0 
-0.319808 0.0519217 0 0.118903 -0.00824493 0 0.10556 -0.0195511 0 
0.070653 -0.0368736 0 0.0261042 -0.0567976 0 -0.0147249 -0.0747845 0 
-0.0433118 -0.0876961 0 -0.0588326 -0.0946533 0 -0.0638935 -0.0963805 0 
-0.0611085 -0.09423 0 -0.0528443 -0.0895346 0 -0.0417927 -0.0833553 0 
-0.0307421 -0.0764933 0 -0.0216985 -0.0695952 0 -0.015264 -0.0632089 0 
-0.0108699 -0.0577548 0 -0.00759119 -0.0534785 0 -0.00480616 -0.0504401 0 
-0.00231016 -0.0485243 0 -4.76837e-05 -0.0474437 0 0.0022012 -0.0467263 0 
0.00496769 -0.0457147 0 0.0089981 -0.0436234 0 0.0149486 -0.0396919 0 
0.0230483 -0.0334225 0 0.0330163 -0.0248201 0 0.044361 -0.0145336 0 
0.056801 -0.00385284 0 0.0703571 0.00542587 0 0.0849589 0.011294 0 
0.0998996 0.0120587 0 0.113684 0.00704867 0 0.124553 -0.00287062 0 
0.131411 -0.0154555 0 0.134512 -0.0280341 0 0.135333 -0.0387553 0 
0.135637 -0.0473689 0 0.136206 -0.0550863 0 0.135904 -0.0636191 0 
0.131597 -0.0737605 0 0.119523 -0.0839295 0 0.0982689 -0.089715 0 
0.0713654 -0.0863254 0 0.0449024 -0.0736878 0 0.0171349 -0.0585734 0 
-0.0334028 -0.049109 0 -0.133037 -0.0451766 0 -0.258153 -0.0369378 0 
-0.337679 -0.0213599 0 -0.341009 -0.00653696 0 -0.325462 0.00286192 0 
0.100476 -0.0699261 0 0.0861958 -0.0923916 0 0.0517882 -0.114265 0 
0.011781 -0.130149 0 -0.0226348 -0.137257 0 -0.0453253 -0.136594 0 
-0.0565484 -0.130949 0 -0.0588884 -0.122827 0 -0.0545359 -0.113792 0 
-0.045433 -0.104622 0 -0.0339857 -0.0956115 0 -0.0228644 -0.0868255 0 
-0.0140783 -0.0783027 0 -0.00825763 -0.0701845 0 -0.00480258 -0.0627281 0 
-0.00267398 -0.056214 0 -0.00107658 -0.0508201 0 0.000391245 -0.0465363 0 
0.00198001 -0.043143 0 0.00408196 -0.0402387 0 0.00734133 -0.0373027 0 
0.0125031 -0.0337958 0 0.0200539 -0.0292912 0 0.029875 -0.0236086 0 
0.0412145 -0.0169041 0 0.0530819 -0.00969911 0 0.0647737 -0.00285435 0 
0.076081 0.00251353 0 0.0870383 0.005216 0 0.0974959 0.00431025 0 
0.106919 -0.000524282 0 0.114583 -0.00875276 0 0.120013 -0.0191151 0 
0.123314 -0.0301406 0 0.125113 -0.0407983 0 0.126094 -0.0509082 0 
0.126364 -0.0610712 0 0.124994 -0.072126 0 0.120093 -0.084341 0 
0.109635 -0.0967275 0 0.0928435 -0.107191 0 0.0709734 -0.114269 0 
0.0454469 -0.119749 0 0.0121921 -0.129017 0 -0.0433956 -0.145437 0 
-0.133928 -0.15923 0 -0.237605 -0.148811 0 -0.304328 -0.111702 0 
-0.311488 -0.0697353 0 -0.30101 -0.0379807 0 0.0739726 -0.107872 0 
0.0612212 -0.134597 0 0.0328959 -0.157301 0 0.00311136 -0.170306 0 
-0.0211704 -0.171736 0 -0.0370032 -0.164166 0 -0.0450651 -0.151833 0 
-0.0467362 -0.138084 0 -0.0429034 -0.124735 0 -0.0346643 -0.112486 0 
-0.0239965 -0.101405 0 -0.0134333 -0.0912418 0 -0.00505751 -0.08167 0 
0.00031054 -0.0724955 0 0.00310057 -0.0637667 0 0.00431687 -0.0557072 0 
0.00487161 -0.0485394 0 0.00536686 -0.0423312 0 0.00624985 -0.0369478 0 
0.0080415 -0.0320995 0 0.0114106 -0.027445 0 0.0170096 -0.0227113 0 
0.0251359 -0.0177906 0 0.0354355 -0.0127721 0 0.0469257 -0.00790399 0 
0.0584107 -0.0035376 0 0.0690136 -0.0001086 0 0.0784274 0.00185716 0 
0.0867556 0.0017944 0 0.0941594 -0.000749052 0 0.100621 -0.00591224 0 
0.105962 -0.0133984 0 0.110023 -0.0225442 0 0.112829 -0.0325819 0 
0.114566 -0.0429665 0 0.115364 -0.0535858 0 0.114989 -0.0647241 0 
0.112635 -0.0767817 0 0.106996 -0.0898812 0 0.0966731 -0.103618 0 
0.080727 -0.117315 0 0.0588075 -0.130925 0 0.0301548 -0.145984 0 
-0.00855243 -0.164886 0 -0.0636162 -0.18645 0 -0.136412 -0.199245 0 
-0.210624 -0.18609 0 -0.258603 -0.146472 0 -0.267288 -0.0994045 0 
-0.261953 -0.0605504 0 0.0470252 -0.12103 0 0.0367667 -0.145482 0 
0.0160795 -0.164983 0 -0.00265473 -0.175218 0 -0.0164949 -0.175061 0 
-0.0254222 -0.166795 0 -0.0304668 -0.153989 0 -0.03179 -0.139568 0 
-0.0289375 -0.125293 0 -0.0221028 -0.112028 0 -0.0127419 -0.100046 0 
-0.00312978 -0.0892189 0 0.00466806 -0.0791935 0 0.0096457 -0.0696377 0 
0.0119857 -0.0604331 0 0.0125533 -0.0516887 0 0.0122994 -0.0435911 0 
0.0119829 -0.0362397 0 0.0122117 -0.0295817 0 0.0135848 -0.0234567 0 
0.0167295 -0.0177064 0 0.0221575 -0.0122873 0 0.0299931 -0.00732762 0 
0.0397615 -0.00308746 0 0.050449 0.000155032 0 0.0608773 0.00220144 0 
0.0701684 0.00293529 0 0.077984 0.00225079 0 0.0844321 5.126e-06 0 
0.0897892 -0.0039407 0 0.0942693 -0.00961888 0 0.0979508 -0.0168765 0 
0.10083 -0.025392 0 0.102892 -0.0347929 0 0.104109 -0.0448115 0 
0.104337 -0.055387 0 0.103168 -0.0666498 0 0.0998366 -0.078791 0 
0.0932566 -0.0918905 0 0.0822008 -0.105837 0 0.0655366 -0.120458 0 
0.042304 -0.135824 0 0.0114857 -0.152312 0 -0.0282737 -0.16971 0 
-0.0777543 -0.184812 0 -0.133567 -0.189371 0 -0.184832 -0.1745 0 
-0.217643 -0.141258 0 -0.225567 -0.101398 0 -0.223302 -0.0661605 0 
0.0250701 -0.115823 0 0.0172688 -0.134387 0 0.00315928 -0.148549 0 
-0.00696707 -0.155995 0 -0.0127471 -0.156365 0 -0.015931 -0.150956 0 
-0.0178384 -0.141616 0 -0.0180405 -0.130001 0 -0.0153629 -0.117424 0 
-0.009417 -0.104882 0 -0.00118762 -0.0930327 0 0.00741923 -0.0821289 0 
0.0145236 -0.0720663 0 0.0190709 -0.0625815 0 0.0210496 -0.0534881 0 
0.0211589 -0.0447772 0 0.0203206 -0.0365474 0 0.0193763 -0.0288821 0 
0.0190329 -0.021784 0 0.0199168 -0.0152055 0 0.02258 -0.00913769 0 
0.0273884 -0.00369471 0 0.0343357 0.000864863 0 0.0429181 0.00421482 0 
0.0522146 0.00609624 0 0.061191 0.00642025 0 0.0690629 0.00525862 0 
0.0754973 0.00274581 0 0.0805641 -0.00101721 0 0.0845354 -0.00598419 0 
0.0876856 -0.0121194 0 0.0901889 -0.0193415 0 0.0921067 -0.0275087 0 
0.0934092 -0.0364566 0 0.0939716 -0.0460612 0 0.0935256 -0.0562832 0 
0.0915846 -0.0671608 0 0.0873939 -0.0787503 0 0.0799501 -0.0910553 0 
0.0681051 -0.103987 0 0.0507395 -0.117383 0 0.0269536 -0.131008 0 
-0.00373161 -0.144369 0 -0.0410521 -0.156134 0 -0.083277 -0.163297 0 
-0.126099 -0.161225 0 -0.162511 -0.146392 0 -0.185501 -0.120431 0 
-0.192191 -0.0899813 0 -0.191478 -0.0619155 0 0.00989854 -0.101247 0 
0.00404125 -0.113548 0 -0.00552917 -0.122601 0 -0.0104706 -0.127758 0 
-0.0114553 -0.129231 0 -0.0106734 -0.127418 0 -0.00951231 -0.122536 0 
-0.00759774 -0.114876 0 -0.00381821 -0.105091 0 0.00228816 -0.0941364 0 
0.0100112 -0.0829803 0 0.0178366 -0.0723003 0 0.0242155 -0.0623586 0 
0.0282239 -0.0531021 0 0.0297901 -0.0443825 0 0.029494 -0.0361153 0 
0.0281944 -0.0283027 0 0.0267463 -0.0209765 0 0.0258884 -0.0141548 0 